+ 0.1 1 0 tcp 40 ------- 1 1.0 2.0 0 0
- 0.1 1 0 tcp 40 ------- 1 1.0 2.0 0 0
r 0.10316 1 0 tcp 40 ------- 1 1.0 2.0 0 0
+ 0.10316 0 2 tcp 40 ------- 1 1.0 2.0 0 0
- 0.10316 0 2 tcp 40 ------- 1 1.0 2.0 0 0
r 0.10632 0 2 tcp 40 ------- 1 1.0 2.0 0 0
+ 0.10632 2 0 ack 40 ------- 1 2.0 1.0 0 1
- 0.10632 2 0 ack 40 ------- 1 2.0 1.0 0 1
r 0.10948 2 0 ack 40 ------- 1 2.0 1.0 0 1
+ 0.10948 0 1 ack 40 ------- 1 2.0 1.0 0 1
- 0.10948 0 1 ack 40 ------- 1 2.0 1.0 0 1
r 0.11264 0 1 ack 40 ------- 1 2.0 1.0 0 1
+ 0.11264 1 0 tcp 1040 ------- 1 1.0 2.0 1 2
- 0.11264 1 0 tcp 1040 ------- 1 1.0 2.0 1 2
+ 0.11264 1 0 tcp 1040 ------- 1 1.0 2.0 2 3
- 0.1168 1 0 tcp 1040 ------- 1 1.0 2.0 2 3
r 0.1198 1 0 tcp 1040 ------- 1 1.0 2.0 1 2
+ 0.1198 0 2 tcp 1040 ------- 1 1.0 2.0 1 2
- 0.1198 0 2 tcp 1040 ------- 1 1.0 2.0 1 2
r 0.12396 1 0 tcp 1040 ------- 1 1.0 2.0 2 3
+ 0.12396 0 2 tcp 1040 ------- 1 1.0 2.0 2 3
- 0.12396 0 2 tcp 1040 ------- 1 1.0 2.0 2 3
r 0.12696 0 2 tcp 1040 ------- 1 1.0 2.0 1 2
+ 0.12696 2 0 ack 40 ------- 1 2.0 1.0 1 4
- 0.12696 2 0 ack 40 ------- 1 2.0 1.0 1 4
r 0.13012 2 0 ack 40 ------- 1 2.0 1.0 1 4
+ 0.13012 0 1 ack 40 ------- 1 2.0 1.0 1 4
- 0.13012 0 1 ack 40 ------- 1 2.0 1.0 1 4
r 0.13112 0 2 tcp 1040 ------- 1 1.0 2.0 2 3
+ 0.13112 2 0 ack 40 ------- 1 2.0 1.0 2 5
- 0.13112 2 0 ack 40 ------- 1 2.0 1.0 2 5
r 0.13328 0 1 ack 40 ------- 1 2.0 1.0 1 4
+ 0.13328 1 0 tcp 1040 ------- 1 1.0 2.0 3 6
- 0.13328 1 0 tcp 1040 ------- 1 1.0 2.0 3 6
+ 0.13328 1 0 tcp 1040 ------- 1 1.0 2.0 4 7
r 0.13428 2 0 ack 40 ------- 1 2.0 1.0 2 5
+ 0.13428 0 1 ack 40 ------- 1 2.0 1.0 2 5
- 0.13428 0 1 ack 40 ------- 1 2.0 1.0 2 5
- 0.13744 1 0 tcp 1040 ------- 1 1.0 2.0 4 7
r 0.13744 0 1 ack 40 ------- 1 2.0 1.0 2 5
+ 0.13744 1 0 tcp 1040 ------- 1 1.0 2.0 5 8
+ 0.13744 1 0 tcp 1040 ------- 1 1.0 2.0 6 9
r 0.14044 1 0 tcp 1040 ------- 1 1.0 2.0 3 6
+ 0.14044 0 2 tcp 1040 ------- 1 1.0 2.0 3 6
- 0.14044 0 2 tcp 1040 ------- 1 1.0 2.0 3 6
- 0.1416 1 0 tcp 1040 ------- 1 1.0 2.0 5 8
r 0.1446 1 0 tcp 1040 ------- 1 1.0 2.0 4 7
+ 0.1446 0 2 tcp 1040 ------- 1 1.0 2.0 4 7
- 0.1446 0 2 tcp 1040 ------- 1 1.0 2.0 4 7
- 0.14576 1 0 tcp 1040 ------- 1 1.0 2.0 6 9
r 0.1476 0 2 tcp 1040 ------- 1 1.0 2.0 3 6
+ 0.1476 2 0 ack 40 ------- 1 2.0 1.0 3 10
- 0.1476 2 0 ack 40 ------- 1 2.0 1.0 3 10
r 0.14876 1 0 tcp 1040 ------- 1 1.0 2.0 5 8
+ 0.14876 0 2 tcp 1040 ------- 1 1.0 2.0 5 8
- 0.14876 0 2 tcp 1040 ------- 1 1.0 2.0 5 8
r 0.15076 2 0 ack 40 ------- 1 2.0 1.0 3 10
+ 0.15076 0 1 ack 40 ------- 1 2.0 1.0 3 10
- 0.15076 0 1 ack 40 ------- 1 2.0 1.0 3 10
r 0.15176 0 2 tcp 1040 ------- 1 1.0 2.0 4 7
+ 0.15176 2 0 ack 40 ------- 1 2.0 1.0 4 11
- 0.15176 2 0 ack 40 ------- 1 2.0 1.0 4 11
r 0.15292 1 0 tcp 1040 ------- 1 1.0 2.0 6 9
+ 0.15292 0 2 tcp 1040 ------- 1 1.0 2.0 6 9
- 0.15292 0 2 tcp 1040 ------- 1 1.0 2.0 6 9
r 0.15392 0 1 ack 40 ------- 1 2.0 1.0 3 10
+ 0.15392 1 0 tcp 1040 ------- 1 1.0 2.0 7 12
- 0.15392 1 0 tcp 1040 ------- 1 1.0 2.0 7 12
+ 0.15392 1 0 tcp 1040 ------- 1 1.0 2.0 8 13
r 0.15492 2 0 ack 40 ------- 1 2.0 1.0 4 11
+ 0.15492 0 1 ack 40 ------- 1 2.0 1.0 4 11
- 0.15492 0 1 ack 40 ------- 1 2.0 1.0 4 11
r 0.15592 0 2 tcp 1040 ------- 1 1.0 2.0 5 8
+ 0.15592 2 0 ack 40 ------- 1 2.0 1.0 5 14
- 0.15592 2 0 ack 40 ------- 1 2.0 1.0 5 14
- 0.15808 1 0 tcp 1040 ------- 1 1.0 2.0 8 13
r 0.15808 0 1 ack 40 ------- 1 2.0 1.0 4 11
+ 0.15808 1 0 tcp 1040 ------- 1 1.0 2.0 9 15
+ 0.15808 1 0 tcp 1040 ------- 1 1.0 2.0 10 16
r 0.15908 2 0 ack 40 ------- 1 2.0 1.0 5 14
+ 0.15908 0 1 ack 40 ------- 1 2.0 1.0 5 14
- 0.15908 0 1 ack 40 ------- 1 2.0 1.0 5 14
r 0.16008 0 2 tcp 1040 ------- 1 1.0 2.0 6 9
+ 0.16008 2 0 ack 40 ------- 1 2.0 1.0 6 17
- 0.16008 2 0 ack 40 ------- 1 2.0 1.0 6 17
r 0.16108 1 0 tcp 1040 ------- 1 1.0 2.0 7 12
+ 0.16108 0 2 tcp 1040 ------- 1 1.0 2.0 7 12
- 0.16108 0 2 tcp 1040 ------- 1 1.0 2.0 7 12
- 0.16224 1 0 tcp 1040 ------- 1 1.0 2.0 9 15
r 0.16224 0 1 ack 40 ------- 1 2.0 1.0 5 14
+ 0.16224 1 0 tcp 1040 ------- 1 1.0 2.0 11 18
+ 0.16224 1 0 tcp 1040 ------- 1 1.0 2.0 12 19
r 0.16324 2 0 ack 40 ------- 1 2.0 1.0 6 17
+ 0.16324 0 1 ack 40 ------- 1 2.0 1.0 6 17
- 0.16324 0 1 ack 40 ------- 1 2.0 1.0 6 17
r 0.16524 1 0 tcp 1040 ------- 1 1.0 2.0 8 13
+ 0.16524 0 2 tcp 1040 ------- 1 1.0 2.0 8 13
- 0.16524 0 2 tcp 1040 ------- 1 1.0 2.0 8 13
- 0.1664 1 0 tcp 1040 ------- 1 1.0 2.0 10 16
r 0.1664 0 1 ack 40 ------- 1 2.0 1.0 6 17
+ 0.1664 1 0 tcp 1040 ------- 1 1.0 2.0 13 20
+ 0.1664 1 0 tcp 1040 ------- 1 1.0 2.0 14 21
r 0.16824 0 2 tcp 1040 ------- 1 1.0 2.0 7 12
+ 0.16824 2 0 ack 40 ------- 1 2.0 1.0 7 22
- 0.16824 2 0 ack 40 ------- 1 2.0 1.0 7 22
r 0.1694 1 0 tcp 1040 ------- 1 1.0 2.0 9 15
+ 0.1694 0 2 tcp 1040 ------- 1 1.0 2.0 9 15
- 0.1694 0 2 tcp 1040 ------- 1 1.0 2.0 9 15
- 0.17056 1 0 tcp 1040 ------- 1 1.0 2.0 11 18
r 0.1714 2 0 ack 40 ------- 1 2.0 1.0 7 22
+ 0.1714 0 1 ack 40 ------- 1 2.0 1.0 7 22
- 0.1714 0 1 ack 40 ------- 1 2.0 1.0 7 22
r 0.1724 0 2 tcp 1040 ------- 1 1.0 2.0 8 13
+ 0.1724 2 0 ack 40 ------- 1 2.0 1.0 8 23
- 0.1724 2 0 ack 40 ------- 1 2.0 1.0 8 23
r 0.17356 1 0 tcp 1040 ------- 1 1.0 2.0 10 16
+ 0.17356 0 2 tcp 1040 ------- 1 1.0 2.0 10 16
- 0.17356 0 2 tcp 1040 ------- 1 1.0 2.0 10 16
r 0.17456 0 1 ack 40 ------- 1 2.0 1.0 7 22
+ 0.17456 1 0 tcp 1040 ------- 1 1.0 2.0 15 24
+ 0.17456 1 0 tcp 1040 ------- 1 1.0 2.0 16 25
- 0.17472 1 0 tcp 1040 ------- 1 1.0 2.0 12 19
r 0.17556 2 0 ack 40 ------- 1 2.0 1.0 8 23
+ 0.17556 0 1 ack 40 ------- 1 2.0 1.0 8 23
- 0.17556 0 1 ack 40 ------- 1 2.0 1.0 8 23
r 0.17656 0 2 tcp 1040 ------- 1 1.0 2.0 9 15
+ 0.17656 2 0 ack 40 ------- 1 2.0 1.0 9 26
- 0.17656 2 0 ack 40 ------- 1 2.0 1.0 9 26
r 0.17772 1 0 tcp 1040 ------- 1 1.0 2.0 11 18
+ 0.17772 0 2 tcp 1040 ------- 1 1.0 2.0 11 18
- 0.17772 0 2 tcp 1040 ------- 1 1.0 2.0 11 18
r 0.17872 0 1 ack 40 ------- 1 2.0 1.0 8 23
+ 0.17872 1 0 tcp 1040 ------- 1 1.0 2.0 17 27
+ 0.17872 1 0 tcp 1040 ------- 1 1.0 2.0 18 28
- 0.17888 1 0 tcp 1040 ------- 1 1.0 2.0 13 20
r 0.17972 2 0 ack 40 ------- 1 2.0 1.0 9 26
+ 0.17972 0 1 ack 40 ------- 1 2.0 1.0 9 26
- 0.17972 0 1 ack 40 ------- 1 2.0 1.0 9 26
r 0.18072 0 2 tcp 1040 ------- 1 1.0 2.0 10 16
+ 0.18072 2 0 ack 40 ------- 1 2.0 1.0 10 29
- 0.18072 2 0 ack 40 ------- 1 2.0 1.0 10 29
r 0.18188 1 0 tcp 1040 ------- 1 1.0 2.0 12 19
+ 0.18188 0 2 tcp 1040 ------- 1 1.0 2.0 12 19
- 0.18188 0 2 tcp 1040 ------- 1 1.0 2.0 12 19
r 0.18288 0 1 ack 40 ------- 1 2.0 1.0 9 26
+ 0.18288 1 0 tcp 1040 ------- 1 1.0 2.0 19 30
+ 0.18288 1 0 tcp 1040 ------- 1 1.0 2.0 20 31
- 0.18304 1 0 tcp 1040 ------- 1 1.0 2.0 14 21
r 0.18388 2 0 ack 40 ------- 1 2.0 1.0 10 29
+ 0.18388 0 1 ack 40 ------- 1 2.0 1.0 10 29
- 0.18388 0 1 ack 40 ------- 1 2.0 1.0 10 29
r 0.18488 0 2 tcp 1040 ------- 1 1.0 2.0 11 18
+ 0.18488 2 0 ack 40 ------- 1 2.0 1.0 11 32
- 0.18488 2 0 ack 40 ------- 1 2.0 1.0 11 32
r 0.18604 1 0 tcp 1040 ------- 1 1.0 2.0 13 20
+ 0.18604 0 2 tcp 1040 ------- 1 1.0 2.0 13 20
- 0.18604 0 2 tcp 1040 ------- 1 1.0 2.0 13 20
r 0.18704 0 1 ack 40 ------- 1 2.0 1.0 10 29
+ 0.18704 1 0 tcp 1040 ------- 1 1.0 2.0 21 33
+ 0.18704 1 0 tcp 1040 ------- 1 1.0 2.0 22 34
- 0.1872 1 0 tcp 1040 ------- 1 1.0 2.0 15 24
r 0.18804 2 0 ack 40 ------- 1 2.0 1.0 11 32
+ 0.18804 0 1 ack 40 ------- 1 2.0 1.0 11 32
- 0.18804 0 1 ack 40 ------- 1 2.0 1.0 11 32
r 0.18904 0 2 tcp 1040 ------- 1 1.0 2.0 12 19
+ 0.18904 2 0 ack 40 ------- 1 2.0 1.0 12 35
- 0.18904 2 0 ack 40 ------- 1 2.0 1.0 12 35
r 0.1902 1 0 tcp 1040 ------- 1 1.0 2.0 14 21
+ 0.1902 0 2 tcp 1040 ------- 1 1.0 2.0 14 21
- 0.1902 0 2 tcp 1040 ------- 1 1.0 2.0 14 21
r 0.1912 0 1 ack 40 ------- 1 2.0 1.0 11 32
+ 0.1912 1 0 tcp 1040 ------- 1 1.0 2.0 23 36
+ 0.1912 1 0 tcp 1040 ------- 1 1.0 2.0 24 37
- 0.19136 1 0 tcp 1040 ------- 1 1.0 2.0 16 25
r 0.1922 2 0 ack 40 ------- 1 2.0 1.0 12 35
+ 0.1922 0 1 ack 40 ------- 1 2.0 1.0 12 35
- 0.1922 0 1 ack 40 ------- 1 2.0 1.0 12 35
r 0.1932 0 2 tcp 1040 ------- 1 1.0 2.0 13 20
+ 0.1932 2 0 ack 40 ------- 1 2.0 1.0 13 38
- 0.1932 2 0 ack 40 ------- 1 2.0 1.0 13 38
r 0.19436 1 0 tcp 1040 ------- 1 1.0 2.0 15 24
+ 0.19436 0 2 tcp 1040 ------- 1 1.0 2.0 15 24
- 0.19436 0 2 tcp 1040 ------- 1 1.0 2.0 15 24
r 0.19536 0 1 ack 40 ------- 1 2.0 1.0 12 35
+ 0.19536 1 0 tcp 1040 ------- 1 1.0 2.0 25 39
+ 0.19536 1 0 tcp 1040 ------- 1 1.0 2.0 26 40
- 0.19552 1 0 tcp 1040 ------- 1 1.0 2.0 17 27
r 0.19636 2 0 ack 40 ------- 1 2.0 1.0 13 38
+ 0.19636 0 1 ack 40 ------- 1 2.0 1.0 13 38
- 0.19636 0 1 ack 40 ------- 1 2.0 1.0 13 38
r 0.19736 0 2 tcp 1040 ------- 1 1.0 2.0 14 21
+ 0.19736 2 0 ack 40 ------- 1 2.0 1.0 14 41
- 0.19736 2 0 ack 40 ------- 1 2.0 1.0 14 41
r 0.19852 1 0 tcp 1040 ------- 1 1.0 2.0 16 25
+ 0.19852 0 2 tcp 1040 ------- 1 1.0 2.0 16 25
- 0.19852 0 2 tcp 1040 ------- 1 1.0 2.0 16 25
r 0.19952 0 1 ack 40 ------- 1 2.0 1.0 13 38
+ 0.19952 1 0 tcp 1040 ------- 1 1.0 2.0 27 42
+ 0.19952 1 0 tcp 1040 ------- 1 1.0 2.0 28 43
- 0.19968 1 0 tcp 1040 ------- 1 1.0 2.0 18 28
+ 0.2 3 0 tcp 40 ------- 2 3.0 4.0 0 44
- 0.2 3 0 tcp 40 ------- 2 3.0 4.0 0 44
r 0.20052 2 0 ack 40 ------- 1 2.0 1.0 14 41
+ 0.20052 0 1 ack 40 ------- 1 2.0 1.0 14 41
- 0.20052 0 1 ack 40 ------- 1 2.0 1.0 14 41
r 0.20152 0 2 tcp 1040 ------- 1 1.0 2.0 15 24
+ 0.20152 2 0 ack 40 ------- 1 2.0 1.0 15 45
- 0.20152 2 0 ack 40 ------- 1 2.0 1.0 15 45
r 0.20268 1 0 tcp 1040 ------- 1 1.0 2.0 17 27
+ 0.20268 0 2 tcp 1040 ------- 1 1.0 2.0 17 27
- 0.20268 0 2 tcp 1040 ------- 1 1.0 2.0 17 27
r 0.20316 3 0 tcp 40 ------- 2 3.0 4.0 0 44
+ 0.20316 0 4 tcp 40 ------- 2 3.0 4.0 0 44
- 0.20316 0 4 tcp 40 ------- 2 3.0 4.0 0 44
r 0.20368 0 1 ack 40 ------- 1 2.0 1.0 14 41
+ 0.20368 1 0 tcp 1040 ------- 1 1.0 2.0 29 46
+ 0.20368 1 0 tcp 1040 ------- 1 1.0 2.0 30 47
- 0.20384 1 0 tcp 1040 ------- 1 1.0 2.0 19 30
r 0.20468 2 0 ack 40 ------- 1 2.0 1.0 15 45
+ 0.20468 0 1 ack 40 ------- 1 2.0 1.0 15 45
- 0.20468 0 1 ack 40 ------- 1 2.0 1.0 15 45
r 0.20568 0 2 tcp 1040 ------- 1 1.0 2.0 16 25
+ 0.20568 2 0 ack 40 ------- 1 2.0 1.0 16 48
- 0.20568 2 0 ack 40 ------- 1 2.0 1.0 16 48
r 0.20632 0 4 tcp 40 ------- 2 3.0 4.0 0 44
+ 0.20632 4 0 ack 40 ------- 2 4.0 3.0 0 49
- 0.20632 4 0 ack 40 ------- 2 4.0 3.0 0 49
r 0.20684 1 0 tcp 1040 ------- 1 1.0 2.0 18 28
+ 0.20684 0 2 tcp 1040 ------- 1 1.0 2.0 18 28
- 0.20684 0 2 tcp 1040 ------- 1 1.0 2.0 18 28
r 0.20784 0 1 ack 40 ------- 1 2.0 1.0 15 45
+ 0.20784 1 0 tcp 1040 ------- 1 1.0 2.0 31 50
+ 0.20784 1 0 tcp 1040 ------- 1 1.0 2.0 32 51
- 0.208 1 0 tcp 1040 ------- 1 1.0 2.0 20 31
r 0.20884 2 0 ack 40 ------- 1 2.0 1.0 16 48
+ 0.20884 0 1 ack 40 ------- 1 2.0 1.0 16 48
- 0.20884 0 1 ack 40 ------- 1 2.0 1.0 16 48
r 0.20948 4 0 ack 40 ------- 2 4.0 3.0 0 49
+ 0.20948 0 3 ack 40 ------- 2 4.0 3.0 0 49
- 0.20948 0 3 ack 40 ------- 2 4.0 3.0 0 49
r 0.20984 0 2 tcp 1040 ------- 1 1.0 2.0 17 27
+ 0.20984 2 0 ack 40 ------- 1 2.0 1.0 17 52
- 0.20984 2 0 ack 40 ------- 1 2.0 1.0 17 52
r 0.211 1 0 tcp 1040 ------- 1 1.0 2.0 19 30
+ 0.211 0 2 tcp 1040 ------- 1 1.0 2.0 19 30
- 0.211 0 2 tcp 1040 ------- 1 1.0 2.0 19 30
r 0.212 0 1 ack 40 ------- 1 2.0 1.0 16 48
+ 0.212 1 0 tcp 1040 ------- 1 1.0 2.0 33 53
+ 0.212 1 0 tcp 1040 ------- 1 1.0 2.0 34 54
- 0.21216 1 0 tcp 1040 ------- 1 1.0 2.0 21 33
r 0.21264 0 3 ack 40 ------- 2 4.0 3.0 0 49
+ 0.21264 3 0 tcp 1040 ------- 2 3.0 4.0 1 55
- 0.21264 3 0 tcp 1040 ------- 2 3.0 4.0 1 55
+ 0.21264 3 0 tcp 1040 ------- 2 3.0 4.0 2 56
r 0.213 2 0 ack 40 ------- 1 2.0 1.0 17 52
+ 0.213 0 1 ack 40 ------- 1 2.0 1.0 17 52
- 0.213 0 1 ack 40 ------- 1 2.0 1.0 17 52
r 0.214 0 2 tcp 1040 ------- 1 1.0 2.0 18 28
+ 0.214 2 0 ack 40 ------- 1 2.0 1.0 18 57
- 0.214 2 0 ack 40 ------- 1 2.0 1.0 18 57
r 0.21516 1 0 tcp 1040 ------- 1 1.0 2.0 20 31
+ 0.21516 0 2 tcp 1040 ------- 1 1.0 2.0 20 31
- 0.21516 0 2 tcp 1040 ------- 1 1.0 2.0 20 31
r 0.21616 0 1 ack 40 ------- 1 2.0 1.0 17 52
+ 0.21616 1 0 tcp 1040 ------- 1 1.0 2.0 35 58
+ 0.21616 1 0 tcp 1040 ------- 1 1.0 2.0 36 59
- 0.21632 1 0 tcp 1040 ------- 1 1.0 2.0 22 34
- 0.2168 3 0 tcp 1040 ------- 2 3.0 4.0 2 56
r 0.21716 2 0 ack 40 ------- 1 2.0 1.0 18 57
+ 0.21716 0 1 ack 40 ------- 1 2.0 1.0 18 57
- 0.21716 0 1 ack 40 ------- 1 2.0 1.0 18 57
r 0.21816 0 2 tcp 1040 ------- 1 1.0 2.0 19 30
+ 0.21816 2 0 ack 40 ------- 1 2.0 1.0 19 60
- 0.21816 2 0 ack 40 ------- 1 2.0 1.0 19 60
r 0.21932 1 0 tcp 1040 ------- 1 1.0 2.0 21 33
+ 0.21932 0 2 tcp 1040 ------- 1 1.0 2.0 21 33
- 0.21932 0 2 tcp 1040 ------- 1 1.0 2.0 21 33
r 0.2198 3 0 tcp 1040 ------- 2 3.0 4.0 1 55
+ 0.2198 0 4 tcp 1040 ------- 2 3.0 4.0 1 55
- 0.2198 0 4 tcp 1040 ------- 2 3.0 4.0 1 55
r 0.22032 0 1 ack 40 ------- 1 2.0 1.0 18 57
+ 0.22032 1 0 tcp 1040 ------- 1 1.0 2.0 37 61
+ 0.22032 1 0 tcp 1040 ------- 1 1.0 2.0 38 62
- 0.22048 1 0 tcp 1040 ------- 1 1.0 2.0 23 36
r 0.22132 2 0 ack 40 ------- 1 2.0 1.0 19 60
+ 0.22132 0 1 ack 40 ------- 1 2.0 1.0 19 60
- 0.22132 0 1 ack 40 ------- 1 2.0 1.0 19 60
r 0.22232 0 2 tcp 1040 ------- 1 1.0 2.0 20 31
+ 0.22232 2 0 ack 40 ------- 1 2.0 1.0 20 63
- 0.22232 2 0 ack 40 ------- 1 2.0 1.0 20 63
r 0.22348 1 0 tcp 1040 ------- 1 1.0 2.0 22 34
+ 0.22348 0 2 tcp 1040 ------- 1 1.0 2.0 22 34
- 0.22348 0 2 tcp 1040 ------- 1 1.0 2.0 22 34
r 0.22396 3 0 tcp 1040 ------- 2 3.0 4.0 2 56
+ 0.22396 0 4 tcp 1040 ------- 2 3.0 4.0 2 56
- 0.22396 0 4 tcp 1040 ------- 2 3.0 4.0 2 56
r 0.22448 0 1 ack 40 ------- 1 2.0 1.0 19 60
+ 0.22448 1 0 tcp 1040 ------- 1 1.0 2.0 39 64
- 0.22464 1 0 tcp 1040 ------- 1 1.0 2.0 24 37
r 0.22548 2 0 ack 40 ------- 1 2.0 1.0 20 63
+ 0.22548 0 1 ack 40 ------- 1 2.0 1.0 20 63
- 0.22548 0 1 ack 40 ------- 1 2.0 1.0 20 63
r 0.22648 0 2 tcp 1040 ------- 1 1.0 2.0 21 33
+ 0.22648 2 0 ack 40 ------- 1 2.0 1.0 21 65
- 0.22648 2 0 ack 40 ------- 1 2.0 1.0 21 65
r 0.22696 0 4 tcp 1040 ------- 2 3.0 4.0 1 55
+ 0.22696 4 0 ack 40 ------- 2 4.0 3.0 1 66
- 0.22696 4 0 ack 40 ------- 2 4.0 3.0 1 66
r 0.22764 1 0 tcp 1040 ------- 1 1.0 2.0 23 36
+ 0.22764 0 2 tcp 1040 ------- 1 1.0 2.0 23 36
- 0.22764 0 2 tcp 1040 ------- 1 1.0 2.0 23 36
r 0.22864 0 1 ack 40 ------- 1 2.0 1.0 20 63
+ 0.22864 1 0 tcp 1040 ------- 1 1.0 2.0 40 67
- 0.2288 1 0 tcp 1040 ------- 1 1.0 2.0 25 39
r 0.22964 2 0 ack 40 ------- 1 2.0 1.0 21 65
+ 0.22964 0 1 ack 40 ------- 1 2.0 1.0 21 65
- 0.22964 0 1 ack 40 ------- 1 2.0 1.0 21 65
r 0.23012 4 0 ack 40 ------- 2 4.0 3.0 1 66
+ 0.23012 0 3 ack 40 ------- 2 4.0 3.0 1 66
- 0.23012 0 3 ack 40 ------- 2 4.0 3.0 1 66
r 0.23064 0 2 tcp 1040 ------- 1 1.0 2.0 22 34
+ 0.23064 2 0 ack 40 ------- 1 2.0 1.0 22 68
- 0.23064 2 0 ack 40 ------- 1 2.0 1.0 22 68
r 0.23112 0 4 tcp 1040 ------- 2 3.0 4.0 2 56
+ 0.23112 4 0 ack 40 ------- 2 4.0 3.0 2 69
- 0.23112 4 0 ack 40 ------- 2 4.0 3.0 2 69
r 0.2318 1 0 tcp 1040 ------- 1 1.0 2.0 24 37
+ 0.2318 0 2 tcp 1040 ------- 1 1.0 2.0 24 37
- 0.2318 0 2 tcp 1040 ------- 1 1.0 2.0 24 37
r 0.2328 0 1 ack 40 ------- 1 2.0 1.0 21 65
+ 0.2328 1 0 tcp 1040 ------- 1 1.0 2.0 41 70
- 0.23296 1 0 tcp 1040 ------- 1 1.0 2.0 26 40
r 0.23328 0 3 ack 40 ------- 2 4.0 3.0 1 66
+ 0.23328 3 0 tcp 1040 ------- 2 3.0 4.0 3 71
- 0.23328 3 0 tcp 1040 ------- 2 3.0 4.0 3 71
+ 0.23328 3 0 tcp 1040 ------- 2 3.0 4.0 4 72
r 0.2338 2 0 ack 40 ------- 1 2.0 1.0 22 68
+ 0.2338 0 1 ack 40 ------- 1 2.0 1.0 22 68
- 0.2338 0 1 ack 40 ------- 1 2.0 1.0 22 68
r 0.23428 4 0 ack 40 ------- 2 4.0 3.0 2 69
+ 0.23428 0 3 ack 40 ------- 2 4.0 3.0 2 69
- 0.23428 0 3 ack 40 ------- 2 4.0 3.0 2 69
r 0.2348 0 2 tcp 1040 ------- 1 1.0 2.0 23 36
+ 0.2348 2 0 ack 40 ------- 1 2.0 1.0 23 73
- 0.2348 2 0 ack 40 ------- 1 2.0 1.0 23 73
r 0.23596 1 0 tcp 1040 ------- 1 1.0 2.0 25 39
+ 0.23596 0 2 tcp 1040 ------- 1 1.0 2.0 25 39
- 0.23596 0 2 tcp 1040 ------- 1 1.0 2.0 25 39
r 0.23696 0 1 ack 40 ------- 1 2.0 1.0 22 68
+ 0.23696 1 0 tcp 1040 ------- 1 1.0 2.0 42 74
- 0.23712 1 0 tcp 1040 ------- 1 1.0 2.0 27 42
- 0.23744 3 0 tcp 1040 ------- 2 3.0 4.0 4 72
r 0.23744 0 3 ack 40 ------- 2 4.0 3.0 2 69
+ 0.23744 3 0 tcp 1040 ------- 2 3.0 4.0 5 75
+ 0.23744 3 0 tcp 1040 ------- 2 3.0 4.0 6 76
r 0.23796 2 0 ack 40 ------- 1 2.0 1.0 23 73
+ 0.23796 0 1 ack 40 ------- 1 2.0 1.0 23 73
- 0.23796 0 1 ack 40 ------- 1 2.0 1.0 23 73
r 0.23896 0 2 tcp 1040 ------- 1 1.0 2.0 24 37
+ 0.23896 2 0 ack 40 ------- 1 2.0 1.0 24 77
- 0.23896 2 0 ack 40 ------- 1 2.0 1.0 24 77
r 0.24012 1 0 tcp 1040 ------- 1 1.0 2.0 26 40
+ 0.24012 0 2 tcp 1040 ------- 1 1.0 2.0 26 40
- 0.24012 0 2 tcp 1040 ------- 1 1.0 2.0 26 40
r 0.24044 3 0 tcp 1040 ------- 2 3.0 4.0 3 71
+ 0.24044 0 4 tcp 1040 ------- 2 3.0 4.0 3 71
- 0.24044 0 4 tcp 1040 ------- 2 3.0 4.0 3 71
r 0.24112 0 1 ack 40 ------- 1 2.0 1.0 23 73
+ 0.24112 1 0 tcp 1040 ------- 1 1.0 2.0 43 78
- 0.24128 1 0 tcp 1040 ------- 1 1.0 2.0 28 43
- 0.2416 3 0 tcp 1040 ------- 2 3.0 4.0 5 75
r 0.24212 2 0 ack 40 ------- 1 2.0 1.0 24 77
+ 0.24212 0 1 ack 40 ------- 1 2.0 1.0 24 77
- 0.24212 0 1 ack 40 ------- 1 2.0 1.0 24 77
r 0.24312 0 2 tcp 1040 ------- 1 1.0 2.0 25 39
+ 0.24312 2 0 ack 40 ------- 1 2.0 1.0 25 79
- 0.24312 2 0 ack 40 ------- 1 2.0 1.0 25 79
r 0.24428 1 0 tcp 1040 ------- 1 1.0 2.0 27 42
+ 0.24428 0 2 tcp 1040 ------- 1 1.0 2.0 27 42
- 0.24428 0 2 tcp 1040 ------- 1 1.0 2.0 27 42
r 0.2446 3 0 tcp 1040 ------- 2 3.0 4.0 4 72
+ 0.2446 0 4 tcp 1040 ------- 2 3.0 4.0 4 72
- 0.2446 0 4 tcp 1040 ------- 2 3.0 4.0 4 72
r 0.24528 0 1 ack 40 ------- 1 2.0 1.0 24 77
+ 0.24528 1 0 tcp 1040 ------- 1 1.0 2.0 44 80
- 0.24544 1 0 tcp 1040 ------- 1 1.0 2.0 29 46
- 0.24576 3 0 tcp 1040 ------- 2 3.0 4.0 6 76
r 0.24628 2 0 ack 40 ------- 1 2.0 1.0 25 79
+ 0.24628 0 1 ack 40 ------- 1 2.0 1.0 25 79
- 0.24628 0 1 ack 40 ------- 1 2.0 1.0 25 79
r 0.24728 0 2 tcp 1040 ------- 1 1.0 2.0 26 40
+ 0.24728 2 0 ack 40 ------- 1 2.0 1.0 26 81
- 0.24728 2 0 ack 40 ------- 1 2.0 1.0 26 81
r 0.2476 0 4 tcp 1040 ------- 2 3.0 4.0 3 71
+ 0.2476 4 0 ack 40 ------- 2 4.0 3.0 3 82
- 0.2476 4 0 ack 40 ------- 2 4.0 3.0 3 82
r 0.24844 1 0 tcp 1040 ------- 1 1.0 2.0 28 43
+ 0.24844 0 2 tcp 1040 ------- 1 1.0 2.0 28 43
- 0.24844 0 2 tcp 1040 ------- 1 1.0 2.0 28 43
r 0.24876 3 0 tcp 1040 ------- 2 3.0 4.0 5 75
+ 0.24876 0 4 tcp 1040 ------- 2 3.0 4.0 5 75
- 0.24876 0 4 tcp 1040 ------- 2 3.0 4.0 5 75
r 0.24944 0 1 ack 40 ------- 1 2.0 1.0 25 79
+ 0.24944 1 0 tcp 1040 ------- 1 1.0 2.0 45 83
- 0.2496 1 0 tcp 1040 ------- 1 1.0 2.0 30 47
r 0.25044 2 0 ack 40 ------- 1 2.0 1.0 26 81
+ 0.25044 0 1 ack 40 ------- 1 2.0 1.0 26 81
- 0.25044 0 1 ack 40 ------- 1 2.0 1.0 26 81
r 0.25076 4 0 ack 40 ------- 2 4.0 3.0 3 82
+ 0.25076 0 3 ack 40 ------- 2 4.0 3.0 3 82
- 0.25076 0 3 ack 40 ------- 2 4.0 3.0 3 82
r 0.25144 0 2 tcp 1040 ------- 1 1.0 2.0 27 42
+ 0.25144 2 0 ack 40 ------- 1 2.0 1.0 27 84
- 0.25144 2 0 ack 40 ------- 1 2.0 1.0 27 84
r 0.25176 0 4 tcp 1040 ------- 2 3.0 4.0 4 72
+ 0.25176 4 0 ack 40 ------- 2 4.0 3.0 4 85
- 0.25176 4 0 ack 40 ------- 2 4.0 3.0 4 85
r 0.2526 1 0 tcp 1040 ------- 1 1.0 2.0 29 46
+ 0.2526 0 2 tcp 1040 ------- 1 1.0 2.0 29 46
- 0.2526 0 2 tcp 1040 ------- 1 1.0 2.0 29 46
r 0.25292 3 0 tcp 1040 ------- 2 3.0 4.0 6 76
+ 0.25292 0 4 tcp 1040 ------- 2 3.0 4.0 6 76
- 0.25292 0 4 tcp 1040 ------- 2 3.0 4.0 6 76
r 0.2536 0 1 ack 40 ------- 1 2.0 1.0 26 81
+ 0.2536 1 0 tcp 1040 ------- 1 1.0 2.0 46 86
- 0.25376 1 0 tcp 1040 ------- 1 1.0 2.0 31 50
r 0.25392 0 3 ack 40 ------- 2 4.0 3.0 3 82
+ 0.25392 3 0 tcp 1040 ------- 2 3.0 4.0 7 87
- 0.25392 3 0 tcp 1040 ------- 2 3.0 4.0 7 87
+ 0.25392 3 0 tcp 1040 ------- 2 3.0 4.0 8 88
r 0.2546 2 0 ack 40 ------- 1 2.0 1.0 27 84
+ 0.2546 0 1 ack 40 ------- 1 2.0 1.0 27 84
- 0.2546 0 1 ack 40 ------- 1 2.0 1.0 27 84
r 0.25492 4 0 ack 40 ------- 2 4.0 3.0 4 85
+ 0.25492 0 3 ack 40 ------- 2 4.0 3.0 4 85
- 0.25492 0 3 ack 40 ------- 2 4.0 3.0 4 85
r 0.2556 0 2 tcp 1040 ------- 1 1.0 2.0 28 43
+ 0.2556 2 0 ack 40 ------- 1 2.0 1.0 28 89
- 0.2556 2 0 ack 40 ------- 1 2.0 1.0 28 89
r 0.25592 0 4 tcp 1040 ------- 2 3.0 4.0 5 75
+ 0.25592 4 0 ack 40 ------- 2 4.0 3.0 5 90
- 0.25592 4 0 ack 40 ------- 2 4.0 3.0 5 90
r 0.25676 1 0 tcp 1040 ------- 1 1.0 2.0 30 47
+ 0.25676 0 2 tcp 1040 ------- 1 1.0 2.0 30 47
- 0.25676 0 2 tcp 1040 ------- 1 1.0 2.0 30 47
r 0.25776 0 1 ack 40 ------- 1 2.0 1.0 27 84
+ 0.25776 1 0 tcp 1040 ------- 1 1.0 2.0 47 91
- 0.25792 1 0 tcp 1040 ------- 1 1.0 2.0 32 51
- 0.25808 3 0 tcp 1040 ------- 2 3.0 4.0 8 88
r 0.25808 0 3 ack 40 ------- 2 4.0 3.0 4 85
+ 0.25808 3 0 tcp 1040 ------- 2 3.0 4.0 9 92
+ 0.25808 3 0 tcp 1040 ------- 2 3.0 4.0 10 93
r 0.25876 2 0 ack 40 ------- 1 2.0 1.0 28 89
+ 0.25876 0 1 ack 40 ------- 1 2.0 1.0 28 89
- 0.25876 0 1 ack 40 ------- 1 2.0 1.0 28 89
r 0.25908 4 0 ack 40 ------- 2 4.0 3.0 5 90
+ 0.25908 0 3 ack 40 ------- 2 4.0 3.0 5 90
- 0.25908 0 3 ack 40 ------- 2 4.0 3.0 5 90
r 0.25976 0 2 tcp 1040 ------- 1 1.0 2.0 29 46
+ 0.25976 2 0 ack 40 ------- 1 2.0 1.0 29 94
- 0.25976 2 0 ack 40 ------- 1 2.0 1.0 29 94
r 0.26008 0 4 tcp 1040 ------- 2 3.0 4.0 6 76
+ 0.26008 4 0 ack 40 ------- 2 4.0 3.0 6 95
- 0.26008 4 0 ack 40 ------- 2 4.0 3.0 6 95
r 0.26092 1 0 tcp 1040 ------- 1 1.0 2.0 31 50
+ 0.26092 0 2 tcp 1040 ------- 1 1.0 2.0 31 50
- 0.26092 0 2 tcp 1040 ------- 1 1.0 2.0 31 50
r 0.26108 3 0 tcp 1040 ------- 2 3.0 4.0 7 87
+ 0.26108 0 4 tcp 1040 ------- 2 3.0 4.0 7 87
- 0.26108 0 4 tcp 1040 ------- 2 3.0 4.0 7 87
r 0.26192 0 1 ack 40 ------- 1 2.0 1.0 28 89
+ 0.26192 1 0 tcp 1040 ------- 1 1.0 2.0 48 96
- 0.26208 1 0 tcp 1040 ------- 1 1.0 2.0 33 53
- 0.26224 3 0 tcp 1040 ------- 2 3.0 4.0 9 92
r 0.26224 0 3 ack 40 ------- 2 4.0 3.0 5 90
+ 0.26224 3 0 tcp 1040 ------- 2 3.0 4.0 11 97
+ 0.26224 3 0 tcp 1040 ------- 2 3.0 4.0 12 98
r 0.26292 2 0 ack 40 ------- 1 2.0 1.0 29 94
+ 0.26292 0 1 ack 40 ------- 1 2.0 1.0 29 94
- 0.26292 0 1 ack 40 ------- 1 2.0 1.0 29 94
r 0.26324 4 0 ack 40 ------- 2 4.0 3.0 6 95
+ 0.26324 0 3 ack 40 ------- 2 4.0 3.0 6 95
- 0.26324 0 3 ack 40 ------- 2 4.0 3.0 6 95
r 0.26392 0 2 tcp 1040 ------- 1 1.0 2.0 30 47
+ 0.26392 2 0 ack 40 ------- 1 2.0 1.0 30 99
- 0.26392 2 0 ack 40 ------- 1 2.0 1.0 30 99
r 0.26508 1 0 tcp 1040 ------- 1 1.0 2.0 32 51
+ 0.26508 0 2 tcp 1040 ------- 1 1.0 2.0 32 51
- 0.26508 0 2 tcp 1040 ------- 1 1.0 2.0 32 51
r 0.26524 3 0 tcp 1040 ------- 2 3.0 4.0 8 88
+ 0.26524 0 4 tcp 1040 ------- 2 3.0 4.0 8 88
- 0.26524 0 4 tcp 1040 ------- 2 3.0 4.0 8 88
r 0.26608 0 1 ack 40 ------- 1 2.0 1.0 29 94
+ 0.26608 1 0 tcp 1040 ------- 1 1.0 2.0 49 100
- 0.26624 1 0 tcp 1040 ------- 1 1.0 2.0 34 54
- 0.2664 3 0 tcp 1040 ------- 2 3.0 4.0 10 93
r 0.2664 0 3 ack 40 ------- 2 4.0 3.0 6 95
+ 0.2664 3 0 tcp 1040 ------- 2 3.0 4.0 13 101
+ 0.2664 3 0 tcp 1040 ------- 2 3.0 4.0 14 102
r 0.26708 2 0 ack 40 ------- 1 2.0 1.0 30 99
+ 0.26708 0 1 ack 40 ------- 1 2.0 1.0 30 99
- 0.26708 0 1 ack 40 ------- 1 2.0 1.0 30 99
r 0.26808 0 2 tcp 1040 ------- 1 1.0 2.0 31 50
+ 0.26808 2 0 ack 40 ------- 1 2.0 1.0 31 103
- 0.26808 2 0 ack 40 ------- 1 2.0 1.0 31 103
r 0.26824 0 4 tcp 1040 ------- 2 3.0 4.0 7 87
+ 0.26824 4 0 ack 40 ------- 2 4.0 3.0 7 104
- 0.26824 4 0 ack 40 ------- 2 4.0 3.0 7 104
r 0.26924 1 0 tcp 1040 ------- 1 1.0 2.0 33 53
+ 0.26924 0 2 tcp 1040 ------- 1 1.0 2.0 33 53
- 0.26924 0 2 tcp 1040 ------- 1 1.0 2.0 33 53
r 0.2694 3 0 tcp 1040 ------- 2 3.0 4.0 9 92
+ 0.2694 0 4 tcp 1040 ------- 2 3.0 4.0 9 92
- 0.2694 0 4 tcp 1040 ------- 2 3.0 4.0 9 92
r 0.27024 0 1 ack 40 ------- 1 2.0 1.0 30 99
+ 0.27024 1 0 tcp 1040 ------- 1 1.0 2.0 50 105
- 0.2704 1 0 tcp 1040 ------- 1 1.0 2.0 35 58
- 0.27056 3 0 tcp 1040 ------- 2 3.0 4.0 11 97
r 0.27124 2 0 ack 40 ------- 1 2.0 1.0 31 103
+ 0.27124 0 1 ack 40 ------- 1 2.0 1.0 31 103
- 0.27124 0 1 ack 40 ------- 1 2.0 1.0 31 103
r 0.2714 4 0 ack 40 ------- 2 4.0 3.0 7 104
+ 0.2714 0 3 ack 40 ------- 2 4.0 3.0 7 104
- 0.2714 0 3 ack 40 ------- 2 4.0 3.0 7 104
r 0.27224 0 2 tcp 1040 ------- 1 1.0 2.0 32 51
+ 0.27224 2 0 ack 40 ------- 1 2.0 1.0 32 106
- 0.27224 2 0 ack 40 ------- 1 2.0 1.0 32 106
r 0.2724 0 4 tcp 1040 ------- 2 3.0 4.0 8 88
+ 0.2724 4 0 ack 40 ------- 2 4.0 3.0 8 107
- 0.2724 4 0 ack 40 ------- 2 4.0 3.0 8 107
r 0.2734 1 0 tcp 1040 ------- 1 1.0 2.0 34 54
+ 0.2734 0 2 tcp 1040 ------- 1 1.0 2.0 34 54
- 0.2734 0 2 tcp 1040 ------- 1 1.0 2.0 34 54
r 0.27356 3 0 tcp 1040 ------- 2 3.0 4.0 10 93
+ 0.27356 0 4 tcp 1040 ------- 2 3.0 4.0 10 93
- 0.27356 0 4 tcp 1040 ------- 2 3.0 4.0 10 93
r 0.2744 0 1 ack 40 ------- 1 2.0 1.0 31 103
+ 0.2744 1 0 tcp 1040 ------- 1 1.0 2.0 51 108
- 0.27456 1 0 tcp 1040 ------- 1 1.0 2.0 36 59
r 0.27456 0 3 ack 40 ------- 2 4.0 3.0 7 104
+ 0.27456 3 0 tcp 1040 ------- 2 3.0 4.0 15 109
+ 0.27456 3 0 tcp 1040 ------- 2 3.0 4.0 16 110
- 0.27472 3 0 tcp 1040 ------- 2 3.0 4.0 12 98
r 0.2754 2 0 ack 40 ------- 1 2.0 1.0 32 106
+ 0.2754 0 1 ack 40 ------- 1 2.0 1.0 32 106
- 0.2754 0 1 ack 40 ------- 1 2.0 1.0 32 106
r 0.27556 4 0 ack 40 ------- 2 4.0 3.0 8 107
+ 0.27556 0 3 ack 40 ------- 2 4.0 3.0 8 107
- 0.27556 0 3 ack 40 ------- 2 4.0 3.0 8 107
r 0.2764 0 2 tcp 1040 ------- 1 1.0 2.0 33 53
+ 0.2764 2 0 ack 40 ------- 1 2.0 1.0 33 111
- 0.2764 2 0 ack 40 ------- 1 2.0 1.0 33 111
r 0.27656 0 4 tcp 1040 ------- 2 3.0 4.0 9 92
+ 0.27656 4 0 ack 40 ------- 2 4.0 3.0 9 112
- 0.27656 4 0 ack 40 ------- 2 4.0 3.0 9 112
r 0.27756 1 0 tcp 1040 ------- 1 1.0 2.0 35 58
+ 0.27756 0 2 tcp 1040 ------- 1 1.0 2.0 35 58
- 0.27756 0 2 tcp 1040 ------- 1 1.0 2.0 35 58
r 0.27772 3 0 tcp 1040 ------- 2 3.0 4.0 11 97
+ 0.27772 0 4 tcp 1040 ------- 2 3.0 4.0 11 97
- 0.27772 0 4 tcp 1040 ------- 2 3.0 4.0 11 97
r 0.27856 0 1 ack 40 ------- 1 2.0 1.0 32 106
+ 0.27856 1 0 tcp 1040 ------- 1 1.0 2.0 52 113
- 0.27872 1 0 tcp 1040 ------- 1 1.0 2.0 37 61
r 0.27872 0 3 ack 40 ------- 2 4.0 3.0 8 107
+ 0.27872 3 0 tcp 1040 ------- 2 3.0 4.0 17 114
+ 0.27872 3 0 tcp 1040 ------- 2 3.0 4.0 18 115
- 0.27888 3 0 tcp 1040 ------- 2 3.0 4.0 13 101
r 0.27956 2 0 ack 40 ------- 1 2.0 1.0 33 111
+ 0.27956 0 1 ack 40 ------- 1 2.0 1.0 33 111
- 0.27956 0 1 ack 40 ------- 1 2.0 1.0 33 111
r 0.27972 4 0 ack 40 ------- 2 4.0 3.0 9 112
+ 0.27972 0 3 ack 40 ------- 2 4.0 3.0 9 112
- 0.27972 0 3 ack 40 ------- 2 4.0 3.0 9 112
r 0.28056 0 2 tcp 1040 ------- 1 1.0 2.0 34 54
+ 0.28056 2 0 ack 40 ------- 1 2.0 1.0 34 116
- 0.28056 2 0 ack 40 ------- 1 2.0 1.0 34 116
r 0.28072 0 4 tcp 1040 ------- 2 3.0 4.0 10 93
+ 0.28072 4 0 ack 40 ------- 2 4.0 3.0 10 117
- 0.28072 4 0 ack 40 ------- 2 4.0 3.0 10 117
r 0.28172 1 0 tcp 1040 ------- 1 1.0 2.0 36 59
+ 0.28172 0 2 tcp 1040 ------- 1 1.0 2.0 36 59
- 0.28172 0 2 tcp 1040 ------- 1 1.0 2.0 36 59
r 0.28188 3 0 tcp 1040 ------- 2 3.0 4.0 12 98
+ 0.28188 0 4 tcp 1040 ------- 2 3.0 4.0 12 98
- 0.28188 0 4 tcp 1040 ------- 2 3.0 4.0 12 98
r 0.28272 0 1 ack 40 ------- 1 2.0 1.0 33 111
+ 0.28272 1 0 tcp 1040 ------- 1 1.0 2.0 53 118
- 0.28288 1 0 tcp 1040 ------- 1 1.0 2.0 38 62
r 0.28288 0 3 ack 40 ------- 2 4.0 3.0 9 112
+ 0.28288 3 0 tcp 1040 ------- 2 3.0 4.0 19 119
+ 0.28288 3 0 tcp 1040 ------- 2 3.0 4.0 20 120
- 0.28304 3 0 tcp 1040 ------- 2 3.0 4.0 14 102
r 0.28372 2 0 ack 40 ------- 1 2.0 1.0 34 116
+ 0.28372 0 1 ack 40 ------- 1 2.0 1.0 34 116
- 0.28372 0 1 ack 40 ------- 1 2.0 1.0 34 116
r 0.28388 4 0 ack 40 ------- 2 4.0 3.0 10 117
+ 0.28388 0 3 ack 40 ------- 2 4.0 3.0 10 117
- 0.28388 0 3 ack 40 ------- 2 4.0 3.0 10 117
r 0.28472 0 2 tcp 1040 ------- 1 1.0 2.0 35 58
+ 0.28472 2 0 ack 40 ------- 1 2.0 1.0 35 121
- 0.28472 2 0 ack 40 ------- 1 2.0 1.0 35 121
r 0.28488 0 4 tcp 1040 ------- 2 3.0 4.0 11 97
+ 0.28488 4 0 ack 40 ------- 2 4.0 3.0 11 122
- 0.28488 4 0 ack 40 ------- 2 4.0 3.0 11 122
r 0.28588 1 0 tcp 1040 ------- 1 1.0 2.0 37 61
+ 0.28588 0 2 tcp 1040 ------- 1 1.0 2.0 37 61
- 0.28588 0 2 tcp 1040 ------- 1 1.0 2.0 37 61
r 0.28604 3 0 tcp 1040 ------- 2 3.0 4.0 13 101
+ 0.28604 0 4 tcp 1040 ------- 2 3.0 4.0 13 101
- 0.28604 0 4 tcp 1040 ------- 2 3.0 4.0 13 101
r 0.28688 0 1 ack 40 ------- 1 2.0 1.0 34 116
+ 0.28688 1 0 tcp 1040 ------- 1 1.0 2.0 54 123
- 0.28704 1 0 tcp 1040 ------- 1 1.0 2.0 39 64
r 0.28704 0 3 ack 40 ------- 2 4.0 3.0 10 117
+ 0.28704 3 0 tcp 1040 ------- 2 3.0 4.0 21 124
+ 0.28704 3 0 tcp 1040 ------- 2 3.0 4.0 22 125
- 0.2872 3 0 tcp 1040 ------- 2 3.0 4.0 15 109
r 0.28788 2 0 ack 40 ------- 1 2.0 1.0 35 121
+ 0.28788 0 1 ack 40 ------- 1 2.0 1.0 35 121
- 0.28788 0 1 ack 40 ------- 1 2.0 1.0 35 121
r 0.28804 4 0 ack 40 ------- 2 4.0 3.0 11 122
+ 0.28804 0 3 ack 40 ------- 2 4.0 3.0 11 122
- 0.28804 0 3 ack 40 ------- 2 4.0 3.0 11 122
r 0.28888 0 2 tcp 1040 ------- 1 1.0 2.0 36 59
+ 0.28888 2 0 ack 40 ------- 1 2.0 1.0 36 126
- 0.28888 2 0 ack 40 ------- 1 2.0 1.0 36 126
r 0.28904 0 4 tcp 1040 ------- 2 3.0 4.0 12 98
+ 0.28904 4 0 ack 40 ------- 2 4.0 3.0 12 127
- 0.28904 4 0 ack 40 ------- 2 4.0 3.0 12 127
r 0.29004 1 0 tcp 1040 ------- 1 1.0 2.0 38 62
+ 0.29004 0 2 tcp 1040 ------- 1 1.0 2.0 38 62
- 0.29004 0 2 tcp 1040 ------- 1 1.0 2.0 38 62
r 0.2902 3 0 tcp 1040 ------- 2 3.0 4.0 14 102
+ 0.2902 0 4 tcp 1040 ------- 2 3.0 4.0 14 102
- 0.2902 0 4 tcp 1040 ------- 2 3.0 4.0 14 102
r 0.29104 0 1 ack 40 ------- 1 2.0 1.0 35 121
+ 0.29104 1 0 tcp 1040 ------- 1 1.0 2.0 55 128
- 0.2912 1 0 tcp 1040 ------- 1 1.0 2.0 40 67
r 0.2912 0 3 ack 40 ------- 2 4.0 3.0 11 122
+ 0.2912 3 0 tcp 1040 ------- 2 3.0 4.0 23 129
+ 0.2912 3 0 tcp 1040 ------- 2 3.0 4.0 24 130
- 0.29136 3 0 tcp 1040 ------- 2 3.0 4.0 16 110
r 0.29204 2 0 ack 40 ------- 1 2.0 1.0 36 126
+ 0.29204 0 1 ack 40 ------- 1 2.0 1.0 36 126
- 0.29204 0 1 ack 40 ------- 1 2.0 1.0 36 126
r 0.2922 4 0 ack 40 ------- 2 4.0 3.0 12 127
+ 0.2922 0 3 ack 40 ------- 2 4.0 3.0 12 127
- 0.2922 0 3 ack 40 ------- 2 4.0 3.0 12 127
r 0.29304 0 2 tcp 1040 ------- 1 1.0 2.0 37 61
+ 0.29304 2 0 ack 40 ------- 1 2.0 1.0 37 131
- 0.29304 2 0 ack 40 ------- 1 2.0 1.0 37 131
r 0.2932 0 4 tcp 1040 ------- 2 3.0 4.0 13 101
+ 0.2932 4 0 ack 40 ------- 2 4.0 3.0 13 132
- 0.2932 4 0 ack 40 ------- 2 4.0 3.0 13 132
r 0.2942 1 0 tcp 1040 ------- 1 1.0 2.0 39 64
+ 0.2942 0 2 tcp 1040 ------- 1 1.0 2.0 39 64
- 0.2942 0 2 tcp 1040 ------- 1 1.0 2.0 39 64
r 0.29436 3 0 tcp 1040 ------- 2 3.0 4.0 15 109