V -t * -v 1.0a5 -a 0
A -t * -n 1 -p 0 -o 0x7fffffff -c 30 -a 1
A -t * -h 1 -m 1073741823 -s 0
c -t * -i 1 -n Red
c -t * -i 2 -n Blue
n -t * -a 4 -s 4 -S UP -v circle -c black -i black
n -t * -a 0 -s 0 -S UP -v box -c black -i black
n -t * -a 1 -s 1 -S UP -v circle -c black -i black
n -t * -a 2 -s 2 -S UP -v circle -c black -i black
n -t * -a 3 -s 3 -S UP -v circle -c black -i black
l -t * -s 0 -d 1 -S UP -r 2000000 -D 0.0030000000000000001 -c black
l -t * -s 0 -d 2 -S UP -r 2000000 -D 0.0030000000000000001 -c black
l -t * -s 0 -d 3 -S UP -r 2000000 -D 0.0030000000000000001 -c black
l -t * -s 0 -d 4 -S UP -r 2000000 -D 0.0030000000000000001 -c black
+ -t 0.1 -s 1 -d 0 -p tcp -e 40 -c 1 -i 0 -a 1 -x {1.0 2.0 0 ------- null}
- -t 0.1 -s 1 -d 0 -p tcp -e 40 -c 1 -i 0 -a 1 -x {1.0 2.0 0 ------- null}
h -t 0.1 -s 1 -d 0 -p tcp -e 40 -c 1 -i 0 -a 1 -x {1.0 2.0 -1 ------- null}
r -t 0.10316 -s 1 -d 0 -p tcp -e 40 -c 1 -i 0 -a 1 -x {1.0 2.0 0 ------- null}
+ -t 0.10316 -s 0 -d 2 -p tcp -e 40 -c 1 -i 0 -a 1 -x {1.0 2.0 0 ------- null}
- -t 0.10316 -s 0 -d 2 -p tcp -e 40 -c 1 -i 0 -a 1 -x {1.0 2.0 0 ------- null}
h -t 0.10316 -s 0 -d 2 -p tcp -e 40 -c 1 -i 0 -a 1 -x {1.0 2.0 -1 ------- null}
r -t 0.10632 -s 0 -d 2 -p tcp -e 40 -c 1 -i 0 -a 1 -x {1.0 2.0 0 ------- null}
+ -t 0.10632 -s 2 -d 0 -p ack -e 40 -c 1 -i 1 -a 1 -x {2.0 1.0 0 ------- null}
- -t 0.10632 -s 2 -d 0 -p ack -e 40 -c 1 -i 1 -a 1 -x {2.0 1.0 0 ------- null}
h -t 0.10632 -s 2 -d 0 -p ack -e 40 -c 1 -i 1 -a 1 -x {2.0 1.0 -1 ------- null}
r -t 0.10948 -s 2 -d 0 -p ack -e 40 -c 1 -i 1 -a 1 -x {2.0 1.0 0 ------- null}
+ -t 0.10948 -s 0 -d 1 -p ack -e 40 -c 1 -i 1 -a 1 -x {2.0 1.0 0 ------- null}
- -t 0.10948 -s 0 -d 1 -p ack -e 40 -c 1 -i 1 -a 1 -x {2.0 1.0 0 ------- null}
h -t 0.10948 -s 0 -d 1 -p ack -e 40 -c 1 -i 1 -a 1 -x {2.0 1.0 -1 ------- null}
r -t 0.11264 -s 0 -d 1 -p ack -e 40 -c 1 -i 1 -a 1 -x {2.0 1.0 0 ------- null}
+ -t 0.11264 -s 1 -d 0 -p tcp -e 1040 -c 1 -i 2 -a 1 -x {1.0 2.0 1 ------- null}
- -t 0.11264 -s 1 -d 0 -p tcp -e 1040 -c 1 -i 2 -a 1 -x {1.0 2.0 1 ------- null}
h -t 0.11264 -s 1 -d 0 -p tcp -e 1040 -c 1 -i 2 -a 1 -x {1.0 2.0 -1 ------- null}
+ -t 0.11264 -s 1 -d 0 -p tcp -e 1040 -c 1 -i 3 -a 1 -x {1.0 2.0 2 ------- null}
- -t 0.1168 -s 1 -d 0 -p tcp -e 1040 -c 1 -i 3 -a 1 -x {1.0 2.0 2 ------- null}
h -t 0.1168 -s 1 -d 0 -p tcp -e 1040 -c 1 -i 3 -a 1 -x {1.0 2.0 -1 ------- null}
r -t 0.1198 -s 1 -d 0 -p tcp -e 1040 -c 1 -i 2 -a 1 -x {1.0 2.0 1 ------- null}
+ -t 0.1198 -s 0 -d 2 -p tcp -e 1040 -c 1 -i 2 -a 1 -x {1.0 2.0 1 ------- null}
- -t 0.1198 -s 0 -d 2 -p tcp -e 1040 -c 1 -i 2 -a 1 -x {1.0 2.0 1 ------- null}
h -t 0.1198 -s 0 -d 2 -p tcp -e 1040 -c 1 -i 2 -a 1 -x {1.0 2.0 -1 ------- null}
r -t 0.12396 -s 1 -d 0 -p tcp -e 1040 -c 1 -i 3 -a 1 -x {1.0 2.0 2 ------- null}
+ -t 0.12396 -s 0 -d 2 -p tcp -e 1040 -c 1 -i 3 -a 1 -x {1.0 2.0 2 ------- null}
- -t 0.12396 -s 0 -d 2 -p tcp -e 1040 -c 1 -i 3 -a 1 -x {1.0 2.0 2 ------- null}
h -t 0.12396 -s 0 -d 2 -p tcp -e 1040 -c 1 -i 3 -a 1 -x {1.0 2.0 -1 ------- null}
r -t 0.12696 -s 0 -d 2 -p tcp -e 1040 -c 1 -i 2 -a 1 -x {1.0 2.0 1 ------- null}
+ -t 0.12696 -s 2 -d 0 -p ack -e 40 -c 1 -i 4 -a 1 -x {2.0 1.0 1 ------- null}
- -t 0.12696 -s 2 -d 0 -p ack -e 40 -c 1 -i 4 -a 1 -x {2.0 1.0 1 ------- null}
h -t 0.12696 -s 2 -d 0 -p ack -e 40 -c 1 -i 4 -a 1 -x {2.0 1.0 -1 ------- null}
r -t 0.13012 -s 2 -d 0 -p ack -e 40 -c 1 -i 4 -a 1 -x {2.0 1.0 1 ------- null}
+ -t 0.13012 -s 0 -d 1 -p ack -e 40 -c 1 -i 4 -a 1 -x {2.0 1.0 1 ------- null}
- -t 0.13012 -s 0 -d 1 -p ack -e 40 -c 1 -i 4 -a 1 -x {2.0 1.0 1 ------- null}
h -t 0.13012 -s 0 -d 1 -p ack -e 40 -c 1 -i 4 -a 1 -x {2.0 1.0 -1 ------- null}
r -t 0.13112 -s 0 -d 2 -p tcp -e 1040 -c 1 -i 3 -a 1 -x {1.0 2.0 2 ------- null}
+ -t 0.13112 -s 2 -d 0 -p ack -e 40 -c 1 -i 5 -a 1 -x {2.0 1.0 2 ------- null}
- -t 0.13112 -s 2 -d 0 -p ack -e 40 -c 1 -i 5 -a 1 -x {2.0 1.0 2 ------- null}
h -t 0.13112 -s 2 -d 0 -p ack -e 40 -c 1 -i 5 -a 1 -x {2.0 1.0 -1 ------- null}
r -t 0.13328 -s 0 -d 1 -p ack -e 40 -c 1 -i 4 -a 1 -x {2.0 1.0 1 ------- null}
+ -t 0.13328 -s 1 -d 0 -p tcp -e 1040 -c 1 -i 6 -a 1 -x {1.0 2.0 3 ------- null}
- -t 0.13328 -s 1 -d 0 -p tcp -e 1040 -c 1 -i 6 -a 1 -x {1.0 2.0 3 ------- null}
h -t 0.13328 -s 1 -d 0 -p tcp -e 1040 -c 1 -i 6 -a 1 -x {1.0 2.0 -1 ------- null}
+ -t 0.13328 -s 1 -d 0 -p tcp -e 1040 -c 1 -i 7 -a 1 -x {1.0 2.0 4 ------- null}
r -t 0.13428 -s 2 -d 0 -p ack -e 40 -c 1 -i 5 -a 1 -x {2.0 1.0 2 ------- null}
+ -t 0.13428 -s 0 -d 1 -p ack -e 40 -c 1 -i 5 -a 1 -x {2.0 1.0 2 ------- null}
- -t 0.13428 -s 0 -d 1 -p ack -e 40 -c 1 -i 5 -a 1 -x {2.0 1.0 2 ------- null}
h -t 0.13428 -s 0 -d 1 -p ack -e 40 -c 1 -i 5 -a 1 -x {2.0 1.0 -1 ------- null}
- -t 0.13744 -s 1 -d 0 -p tcp -e 1040 -c 1 -i 7 -a 1 -x {1.0 2.0 4 ------- null}
h -t 0.13744 -s 1 -d 0 -p tcp -e 1040 -c 1 -i 7 -a 1 -x {1.0 2.0 -1 ------- null}
r -t 0.13744 -s 0 -d 1 -p ack -e 40 -c 1 -i 5 -a 1 -x {2.0 1.0 2 ------- null}
+ -t 0.13744 -s 1 -d 0 -p tcp -e 1040 -c 1 -i 8 -a 1 -x {1.0 2.0 5 ------- null}
+ -t 0.13744 -s 1 -d 0 -p tcp -e 1040 -c 1 -i 9 -a 1 -x {1.0 2.0 6 ------- null}
r -t 0.14044 -s 1 -d 0 -p tcp -e 1040 -c 1 -i 6 -a 1 -x {1.0 2.0 3 ------- null}
+ -t 0.14044 -s 0 -d 2 -p tcp -e 1040 -c 1 -i 6 -a 1 -x {1.0 2.0 3 ------- null}
- -t 0.14044 -s 0 -d 2 -p tcp -e 1040 -c 1 -i 6 -a 1 -x {1.0 2.0 3 ------- null}
h -t 0.14044 -s 0 -d 2 -p tcp -e 1040 -c 1 -i 6 -a 1 -x {1.0 2.0 -1 ------- null}
- -t 0.1416 -s 1 -d 0 -p tcp -e 1040 -c 1 -i 8 -a 1 -x {1.0 2.0 5 ------- null}
h -t 0.1416 -s 1 -d 0 -p tcp -e 1040 -c 1 -i 8 -a 1 -x {1.0 2.0 -1 ------- null}
r -t 0.1446 -s 1 -d 0 -p tcp -e 1040 -c 1 -i 7 -a 1 -x {1.0 2.0 4 ------- null}
+ -t 0.1446 -s 0 -d 2 -p tcp -e 1040 -c 1 -i 7 -a 1 -x {1.0 2.0 4 ------- null}
- -t 0.1446 -s 0 -d 2 -p tcp -e 1040 -c 1 -i 7 -a 1 -x {1.0 2.0 4 ------- null}
h -t 0.1446 -s 0 -d 2 -p tcp -e 1040 -c 1 -i 7 -a 1 -x {1.0 2.0 -1 ------- null}
- -t 0.14576 -s 1 -d 0 -p tcp -e 1040 -c 1 -i 9 -a 1 -x {1.0 2.0 6 ------- null}
h -t 0.14576 -s 1 -d 0 -p tcp -e 1040 -c 1 -i 9 -a 1 -x {1.0 2.0 -1 ------- null}
r -t 0.1476 -s 0 -d 2 -p tcp -e 1040 -c 1 -i 6 -a 1 -x {1.0 2.0 3 ------- null}
+ -t 0.1476 -s 2 -d 0 -p ack -e 40 -c 1 -i 10 -a 1 -x {2.0 1.0 3 ------- null}
- -t 0.1476 -s 2 -d 0 -p ack -e 40 -c 1 -i 10 -a 1 -x {2.0 1.0 3 ------- null}
h -t 0.1476 -s 2 -d 0 -p ack -e 40 -c 1 -i 10 -a 1 -x {2.0 1.0 -1 ------- null}
r -t 0.14876 -s 1 -d 0 -p tcp -e 1040 -c 1 -i 8 -a 1 -x {1.0 2.0 5 ------- null}
+ -t 0.14876 -s 0 -d 2 -p tcp -e 1040 -c 1 -i 8 -a 1 -x {1.0 2.0 5 ------- null}
- -t 0.14876 -s 0 -d 2 -p tcp -e 1040 -c 1 -i 8 -a 1 -x {1.0 2.0 5 ------- null}
h -t 0.14876 -s 0 -d 2 -p tcp -e 1040 -c 1 -i 8 -a 1 -x {1.0 2.0 -1 ------- null}
r -t 0.15076 -s 2 -d 0 -p ack -e 40 -c 1 -i 10 -a 1 -x {2.0 1.0 3 ------- null}
+ -t 0.15076 -s 0 -d 1 -p ack -e 40 -c 1 -i 10 -a 1 -x {2.0 1.0 3 ------- null}
- -t 0.15076 -s 0 -d 1 -p ack -e 40 -c 1 -i 10 -a 1 -x {2.0 1.0 3 ------- null}
h -t 0.15076 -s 0 -d 1 -p ack -e 40 -c 1 -i 10 -a 1 -x {2.0 1.0 -1 ------- null}
r -t 0.15176 -s 0 -d 2 -p tcp -e 1040 -c 1 -i 7 -a 1 -x {1.0 2.0 4 ------- null}
+ -t 0.15176 -s 2 -d 0 -p ack -e 40 -c 1 -i 11 -a 1 -x {2.0 1.0 4 ------- null}
- -t 0.15176 -s 2 -d 0 -p ack -e 40 -c 1 -i 11 -a 1 -x {2.0 1.0 4 ------- null}
h -t 0.15176 -s 2 -d 0 -p ack -e 40 -c 1 -i 11 -a 1 -x {2.0 1.0 -1 ------- null}
r -t 0.15292 -s 1 -d 0 -p tcp -e 1040 -c 1 -i 9 -a 1 -x {1.0 2.0 6 ------- null}
+ -t 0.15292 -s 0 -d 2 -p tcp -e 1040 -c 1 -i 9 -a 1 -x {1.0 2.0 6 ------- null}
- -t 0.15292 -s 0 -d 2 -p tcp -e 1040 -c 1 -i 9 -a 1 -x {1.0 2.0 6 ------- null}
h -t 0.15292 -s 0 -d 2 -p tcp -e 1040 -c 1 -i 9 -a 1 -x {1.0 2.0 -1 ------- null}
r -t 0.15392 -s 0 -d 1 -p ack -e 40 -c 1 -i 10 -a 1 -x {2.0 1.0 3 ------- null}
+ -t 0.15392 -s 1 -d 0 -p tcp -e 1040 -c 1 -i 12 -a 1 -x {1.0 2.0 7 ------- null}
- -t 0.15392 -s 1 -d 0 -p tcp -e 1040 -c 1 -i 12 -a 1 -x {1.0 2.0 7 ------- null}
h -t 0.15392 -s 1 -d 0 -p tcp -e 1040 -c 1 -i 12 -a 1 -x {1.0 2.0 -1 ------- null}
+ -t 0.15392 -s 1 -d 0 -p tcp -e 1040 -c 1 -i 13 -a 1 -x {1.0 2.0 8 ------- null}
r -t 0.15492 -s 2 -d 0 -p ack -e 40 -c 1 -i 11 -a 1 -x {2.0 1.0 4 ------- null}
+ -t 0.15492 -s 0 -d 1 -p ack -e 40 -c 1 -i 11 -a 1 -x {2.0 1.0 4 ------- null}
- -t 0.15492 -s 0 -d 1 -p ack -e 40 -c 1 -i 11 -a 1 -x {2.0 1.0 4 ------- null}
h -t 0.15492 -s 0 -d 1 -p ack -e 40 -c 1 -i 11 -a 1 -x {2.0 1.0 -1 ------- null}
r -t 0.15592 -s 0 -d 2 -p tcp -e 1040 -c 1 -i 8 -a 1 -x {1.0 2.0 5 ------- null}
+ -t 0.15592 -s 2 -d 0 -p ack -e 40 -c 1 -i 14 -a 1 -x {2.0 1.0 5 ------- null}
- -t 0.15592 -s 2 -d 0 -p ack -e 40 -c 1 -i 14 -a 1 -x {2.0 1.0 5 ------- null}
h -t 0.15592 -s 2 -d 0 -p ack -e 40 -c 1 -i 14 -a 1 -x {2.0 1.0 -1 ------- null}
- -t 0.15808 -s 1 -d 0 -p tcp -e 1040 -c 1 -i 13 -a 1 -x {1.0 2.0 8 ------- null}
h -t 0.15808 -s 1 -d 0 -p tcp -e 1040 -c 1 -i 13 -a 1 -x {1.0 2.0 -1 ------- null}
r -t 0.15808 -s 0 -d 1 -p ack -e 40 -c 1 -i 11 -a 1 -x {2.0 1.0 4 ------- null}
+ -t 0.15808 -s 1 -d 0 -p tcp -e 1040 -c 1 -i 15 -a 1 -x {1.0 2.0 9 ------- null}
+ -t 0.15808 -s 1 -d 0 -p tcp -e 1040 -c 1 -i 16 -a 1 -x {1.0 2.0 10 ------- null}
r -t 0.15908 -s 2 -d 0 -p ack -e 40 -c 1 -i 14 -a 1 -x {2.0 1.0 5 ------- null}
+ -t 0.15908 -s 0 -d 1 -p ack -e 40 -c 1 -i 14 -a 1 -x {2.0 1.0 5 ------- null}
- -t 0.15908 -s 0 -d 1 -p ack -e 40 -c 1 -i 14 -a 1 -x {2.0 1.0 5 ------- null}
h -t 0.15908 -s 0 -d 1 -p ack -e 40 -c 1 -i 14 -a 1 -x {2.0 1.0 -1 ------- null}
r -t 0.16008 -s 0 -d 2 -p tcp -e 1040 -c 1 -i 9 -a 1 -x {1.0 2.0 6 ------- null}
+ -t 0.16008 -s 2 -d 0 -p ack -e 40 -c 1 -i 17 -a 1 -x {2.0 1.0 6 ------- null}
- -t 0.16008 -s 2 -d 0 -p ack -e 40 -c 1 -i 17 -a 1 -x {2.0 1.0 6 ------- null}
h -t 0.16008 -s 2 -d 0 -p ack -e 40 -c 1 -i 17 -a 1 -x {2.0 1.0 -1 ------- null}
r -t 0.16108 -s 1 -d 0 -p tcp -e 1040 -c 1 -i 12 -a 1 -x {1.0 2.0 7 ------- null}
+ -t 0.16108 -s 0 -d 2 -p tcp -e 1040 -c 1 -i 12 -a 1 -x {1.0 2.0 7 ------- null}
- -t 0.16108 -s 0 -d 2 -p tcp -e 1040 -c 1 -i 12 -a 1 -x {1.0 2.0 7 ------- null}
h -t 0.16108 -s 0 -d 2 -p tcp -e 1040 -c 1 -i 12 -a 1 -x {1.0 2.0 -1 ------- null}
- -t 0.16224 -s 1 -d 0 -p tcp -e 1040 -c 1 -i 15 -a 1 -x {1.0 2.0 9 ------- null}
h -t 0.16224 -s 1 -d 0 -p tcp -e 1040 -c 1 -i 15 -a 1 -x {1.0 2.0 -1 ------- null}
r -t 0.16224 -s 0 -d 1 -p ack -e 40 -c 1 -i 14 -a 1 -x {2.0 1.0 5 ------- null}
+ -t 0.16224 -s 1 -d 0 -p tcp -e 1040 -c 1 -i 18 -a 1 -x {1.0 2.0 11 ------- null}
+ -t 0.16224 -s 1 -d 0 -p tcp -e 1040 -c 1 -i 19 -a 1 -x {1.0 2.0 12 ------- null}
r -t 0.16324 -s 2 -d 0 -p ack -e 40 -c 1 -i 17 -a 1 -x {2.0 1.0 6 ------- null}
+ -t 0.16324 -s 0 -d 1 -p ack -e 40 -c 1 -i 17 -a 1 -x {2.0 1.0 6 ------- null}
- -t 0.16324 -s 0 -d 1 -p ack -e 40 -c 1 -i 17 -a 1 -x {2.0 1.0 6 ------- null}
h -t 0.16324 -s 0 -d 1 -p ack -e 40 -c 1 -i 17 -a 1 -x {2.0 1.0 -1 ------- null}
r -t 0.16524 -s 1 -d 0 -p tcp -e 1040 -c 1 -i 13 -a 1 -x {1.0 2.0 8 ------- null}
+ -t 0.16524 -s 0 -d 2 -p tcp -e 1040 -c 1 -i 13 -a 1 -x {1.0 2.0 8 ------- null}
- -t 0.16524 -s 0 -d 2 -p tcp -e 1040 -c 1 -i 13 -a 1 -x {1.0 2.0 8 ------- null}
h -t 0.16524 -s 0 -d 2 -p tcp -e 1040 -c 1 -i 13 -a 1 -x {1.0 2.0 -1 ------- null}
- -t 0.1664 -s 1 -d 0 -p tcp -e 1040 -c 1 -i 16 -a 1 -x {1.0 2.0 10 ------- null}
h -t 0.1664 -s 1 -d 0 -p tcp -e 1040 -c 1 -i 16 -a 1 -x {1.0 2.0 -1 ------- null}
r -t 0.1664 -s 0 -d 1 -p ack -e 40 -c 1 -i 17 -a 1 -x {2.0 1.0 6 ------- null}
+ -t 0.1664 -s 1 -d 0 -p tcp -e 1040 -c 1 -i 20 -a 1 -x {1.0 2.0 13 ------- null}
+ -t 0.1664 -s 1 -d 0 -p tcp -e 1040 -c 1 -i 21 -a 1 -x {1.0 2.0 14 ------- null}
r -t 0.16824 -s 0 -d 2 -p tcp -e 1040 -c 1 -i 12 -a 1 -x {1.0 2.0 7 ------- null}
+ -t 0.16824 -s 2 -d 0 -p ack -e 40 -c 1 -i 22 -a 1 -x {2.0 1.0 7 ------- null}
- -t 0.16824 -s 2 -d 0 -p ack -e 40 -c 1 -i 22 -a 1 -x {2.0 1.0 7 ------- null}
h -t 0.16824 -s 2 -d 0 -p ack -e 40 -c 1 -i 22 -a 1 -x {2.0 1.0 -1 ------- null}
r -t 0.1694 -s 1 -d 0 -p tcp -e 1040 -c 1 -i 15 -a 1 -x {1.0 2.0 9 ------- null}
+ -t 0.1694 -s 0 -d 2 -p tcp -e 1040 -c 1 -i 15 -a 1 -x {1.0 2.0 9 ------- null}
- -t 0.1694 -s 0 -d 2 -p tcp -e 1040 -c 1 -i 15 -a 1 -x {1.0 2.0 9 ------- null}
h -t 0.1694 -s 0 -d 2 -p tcp -e 1040 -c 1 -i 15 -a 1 -x {1.0 2.0 -1 ------- null}
- -t 0.17056 -s 1 -d 0 -p tcp -e 1040 -c 1 -i 18 -a 1 -x {1.0 2.0 11 ------- null}
h -t 0.17056 -s 1 -d 0 -p tcp -e 1040 -c 1 -i 18 -a 1 -x {1.0 2.0 -1 ------- null}
r -t 0.1714 -s 2 -d 0 -p ack -e 40 -c 1 -i 22 -a 1 -x {2.0 1.0 7 ------- null}
+ -t 0.1714 -s 0 -d 1 -p ack -e 40 -c 1 -i 22 -a 1 -x {2.0 1.0 7 ------- null}
- -t 0.1714 -s 0 -d 1 -p ack -e 40 -c 1 -i 22 -a 1 -x {2.0 1.0 7 ------- null}
h -t 0.1714 -s 0 -d 1 -p ack -e 40 -c 1 -i 22 -a 1 -x {2.0 1.0 -1 ------- null}
r -t 0.1724 -s 0 -d 2 -p tcp -e 1040 -c 1 -i 13 -a 1 -x {1.0 2.0 8 ------- null}
+ -t 0.1724 -s 2 -d 0 -p ack -e 40 -c 1 -i 23 -a 1 -x {2.0 1.0 8 ------- null}
- -t 0.1724 -s 2 -d 0 -p ack -e 40 -c 1 -i 23 -a 1 -x {2.0 1.0 8 ------- null}
h -t 0.1724 -s 2 -d 0 -p ack -e 40 -c 1 -i 23 -a 1 -x {2.0 1.0 -1 ------- null}
r -t 0.17356 -s 1 -d 0 -p tcp -e 1040 -c 1 -i 16 -a 1 -x {1.0 2.0 10 ------- null}
+ -t 0.17356 -s 0 -d 2 -p tcp -e 1040 -c 1 -i 16 -a 1 -x {1.0 2.0 10 ------- null}
- -t 0.17356 -s 0 -d 2 -p tcp -e 1040 -c 1 -i 16 -a 1 -x {1.0 2.0 10 ------- null}
h -t 0.17356 -s 0 -d 2 -p tcp -e 1040 -c 1 -i 16 -a 1 -x {1.0 2.0 -1 ------- null}
r -t 0.17456 -s 0 -d 1 -p ack -e 40 -c 1 -i 22 -a 1 -x {2.0 1.0 7 ------- null}
+ -t 0.17456 -s 1 -d 0 -p tcp -e 1040 -c 1 -i 24 -a 1 -x {1.0 2.0 15 ------- null}
+ -t 0.17456 -s 1 -d 0 -p tcp -e 1040 -c 1 -i 25 -a 1 -x {1.0 2.0 16 ------- null}
- -t 0.17472 -s 1 -d 0 -p tcp -e 1040 -c 1 -i 19 -a 1 -x {1.0 2.0 12 ------- null}
h -t 0.17472 -s 1 -d 0 -p tcp -e 1040 -c 1 -i 19 -a 1 -x {1.0 2.0 -1 ------- null}
r -t 0.17556 -s 2 -d 0 -p ack -e 40 -c 1 -i 23 -a 1 -x {2.0 1.0 8 ------- null}
+ -t 0.17556 -s 0 -d 1 -p ack -e 40 -c 1 -i 23 -a 1 -x {2.0 1.0 8 ------- null}
- -t 0.17556 -s 0 -d 1 -p ack -e 40 -c 1 -i 23 -a 1 -x {2.0 1.0 8 ------- null}
h -t 0.17556 -s 0 -d 1 -p ack -e 40 -c 1 -i 23 -a 1 -x {2.0 1.0 -1 ------- null}
r -t 0.17656 -s 0 -d 2 -p tcp -e 1040 -c 1 -i 15 -a 1 -x {1.0 2.0 9 ------- null}
+ -t 0.17656 -s 2 -d 0 -p ack -e 40 -c 1 -i 26 -a 1 -x {2.0 1.0 9 ------- null}
- -t 0.17656 -s 2 -d 0 -p ack -e 40 -c 1 -i 26 -a 1 -x {2.0 1.0 9 ------- null}
h -t 0.17656 -s 2 -d 0 -p ack -e 40 -c 1 -i 26 -a 1 -x {2.0 1.0 -1 ------- null}
r -t 0.17772 -s 1 -d 0 -p tcp -e 1040 -c 1 -i 18 -a 1 -x {1.0 2.0 11 ------- null}
+ -t 0.17772 -s 0 -d 2 -p tcp -e 1040 -c 1 -i 18 -a 1 -x {1.0 2.0 11 ------- null}
- -t 0.17772 -s 0 -d 2 -p tcp -e 1040 -c 1 -i 18 -a 1 -x {1.0 2.0 11 ------- null}
h -t 0.17772 -s 0 -d 2 -p tcp -e 1040 -c 1 -i 18 -a 1 -x {1.0 2.0 -1 ------- null}
r -t 0.17872 -s 0 -d 1 -p ack -e 40 -c 1 -i 23 -a 1 -x {2.0 1.0 8 ------- null}
+ -t 0.17872 -s 1 -d 0 -p tcp -e 1040 -c 1 -i 27 -a 1 -x {1.0 2.0 17 ------- null}
+ -t 0.17872 -s 1 -d 0 -p tcp -e 1040 -c 1 -i 28 -a 1 -x {1.0 2.0 18 ------- null}
- -t 0.17888 -s 1 -d 0 -p tcp -e 1040 -c 1 -i 20 -a 1 -x {1.0 2.0 13 ------- null}
h -t 0.17888 -s 1 -d 0 -p tcp -e 1040 -c 1 -i 20 -a 1 -x {1.0 2.0 -1 ------- null}
r -t 0.17972 -s 2 -d 0 -p ack -e 40 -c 1 -i 26 -a 1 -x {2.0 1.0 9 ------- null}
+ -t 0.17972 -s 0 -d 1 -p ack -e 40 -c 1 -i 26 -a 1 -x {2.0 1.0 9 ------- null}
- -t 0.17972 -s 0 -d 1 -p ack -e 40 -c 1 -i 26 -a 1 -x {2.0 1.0 9 ------- null}
h -t 0.17972 -s 0 -d 1 -p ack -e 40 -c 1 -i 26 -a 1 -x {2.0 1.0 -1 ------- null}
r -t 0.18072 -s 0 -d 2 -p tcp -e 1040 -c 1 -i 16 -a 1 -x {1.0 2.0 10 ------- null}
+ -t 0.18072 -s 2 -d 0 -p ack -e 40 -c 1 -i 29 -a 1 -x {2.0 1.0 10 ------- null}
- -t 0.18072 -s 2 -d 0 -p ack -e 40 -c 1 -i 29 -a 1 -x {2.0 1.0 10 ------- null}
h -t 0.18072 -s 2 -d 0 -p ack -e 40 -c 1 -i 29 -a 1 -x {2.0 1.0 -1 ------- null}
r -t 0.18188 -s 1 -d 0 -p tcp -e 1040 -c 1 -i 19 -a 1 -x {1.0 2.0 12 ------- null}
+ -t 0.18188 -s 0 -d 2 -p tcp -e 1040 -c 1 -i 19 -a 1 -x {1.0 2.0 12 ------- null}
- -t 0.18188 -s 0 -d 2 -p tcp -e 1040 -c 1 -i 19 -a 1 -x {1.0 2.0 12 ------- null}
h -t 0.18188 -s 0 -d 2 -p tcp -e 1040 -c 1 -i 19 -a 1 -x {1.0 2.0 -1 ------- null}
r -t 0.18288 -s 0 -d 1 -p ack -e 40 -c 1 -i 26 -a 1 -x {2.0 1.0 9 ------- null}
+ -t 0.18288 -s 1 -d 0 -p tcp -e 1040 -c 1 -i 30 -a 1 -x {1.0 2.0 19 ------- null}
+ -t 0.18288 -s 1 -d 0 -p tcp -e 1040 -c 1 -i 31 -a 1 -x {1.0 2.0 20 ------- null}
- -t 0.18304 -s 1 -d 0 -p tcp -e 1040 -c 1 -i 21 -a 1 -x {1.0 2.0 14 ------- null}
h -t 0.18304 -s 1 -d 0 -p tcp -e 1040 -c 1 -i 21 -a 1 -x {1.0 2.0 -1 ------- null}
r -t 0.18388 -s 2 -d 0 -p ack -e 40 -c 1 -i 29 -a 1 -x {2.0 1.0 10 ------- null}
+ -t 0.18388 -s 0 -d 1 -p ack -e 40 -c 1 -i 29 -a 1 -x {2.0 1.0 10 ------- null}
- -t 0.18388 -s 0 -d 1 -p ack -e 40 -c 1 -i 29 -a 1 -x {2.0 1.0 10 ------- null}
h -t 0.18388 -s 0 -d 1 -p ack -e 40 -c 1 -i 29 -a 1 -x {2.0 1.0 -1 ------- null}
r -t 0.18488 -s 0 -d 2 -p tcp -e 1040 -c 1 -i 18 -a 1 -x {1.0 2.0 11 ------- null}
+ -t 0.18488 -s 2 -d 0 -p ack -e 40 -c 1 -i 32 -a 1 -x {2.0 1.0 11 ------- null}
- -t 0.18488 -s 2 -d 0 -p ack -e 40 -c 1 -i 32 -a 1 -x {2.0 1.0 11 ------- null}
h -t 0.18488 -s 2 -d 0 -p ack -e 40 -c 1 -i 32 -a 1 -x {2.0 1.0 -1 ------- null}
r -t 0.18604 -s 1 -d 0 -p tcp -e 1040 -c 1 -i 20 -a 1 -x {1.0 2.0 13 ------- null}
+ -t 0.18604 -s 0 -d 2 -p tcp -e 1040 -c 1 -i 20 -a 1 -x {1.0 2.0 13 ------- null}
- -t 0.18604 -s 0 -d 2 -p tcp -e 1040 -c 1 -i 20 -a 1 -x {1.0 2.0 13 ------- null}
h -t 0.18604 -s 0 -d 2 -p tcp -e 1040 -c 1 -i 20 -a 1 -x {1.0 2.0 -1 ------- null}
r -t 0.18704 -s 0 -d 1 -p ack -e 40 -c 1 -i 29 -a 1 -x {2.0 1.0 10 ------- null}
+ -t 0.18704 -s 1 -d 0 -p tcp -e 1040 -c 1 -i 33 -a 1 -x {1.0 2.0 21 ------- null}
+ -t 0.18704 -s 1 -d 0 -p tcp -e 1040 -c 1 -i 34 -a 1 -x {1.0 2.0 22 ------- null}
- -t 0.1872 -s 1 -d 0 -p tcp -e 1040 -c 1 -i 24 -a 1 -x {1.0 2.0 15 ------- null}
h -t 0.1872 -s 1 -d 0 -p tcp -e 1040 -c 1 -i 24 -a 1 -x {1.0 2.0 -1 ------- null}
r -t 0.18804 -s 2 -d 0 -p ack -e 40 -c 1 -i 32 -a 1 -x {2.0 1.0 11 ------- null}
+ -t 0.18804 -s 0 -d 1 -p ack -e 40 -c 1 -i 32 -a 1 -x {2.0 1.0 11 ------- null}
- -t 0.18804 -s 0 -d 1 -p ack -e 40 -c 1 -i 32 -a 1 -x {2.0 1.0 11 ------- null}
h -t 0.18804 -s 0 -d 1 -p ack -e 40 -c 1 -i 32 -a 1 -x {2.0 1.0 -1 ------- null}
r -t 0.18904 -s 0 -d 2 -p tcp -e 1040 -c 1 -i 19 -a 1 -x {1.0 2.0 12 ------- null}
+ -t 0.18904 -s 2 -d 0 -p ack -e 40 -c 1 -i 35 -a 1 -x {2.0 1.0 12 ------- null}
- -t 0.18904 -s 2 -d 0 -p ack -e 40 -c 1 -i 35 -a 1 -x {2.0 1.0 12 ------- null}
h -t 0.18904 -s 2 -d 0 -p ack -e 40 -c 1 -i 35 -a 1 -x {2.0 1.0 -1 ------- null}
r -t 0.1902 -s 1 -d 0 -p tcp -e 1040 -c 1 -i 21 -a 1 -x {1.0 2.0 14 ------- null}
+ -t 0.1902 -s 0 -d 2 -p tcp -e 1040 -c 1 -i 21 -a 1 -x {1.0 2.0 14 ------- null}
- -t 0.1902 -s 0 -d 2 -p tcp -e 1040 -c 1 -i 21 -a 1 -x {1.0 2.0 14 ------- null}
h -t 0.1902 -s 0 -d 2 -p tcp -e 1040 -c 1 -i 21 -a 1 -x {1.0 2.0 -1 ------- null}
r -t 0.1912 -s 0 -d 1 -p ack -e 40 -c 1 -i 32 -a 1 -x {2.0 1.0 11 ------- null}
+ -t 0.1912 -s 1 -d 0 -p tcp -e 1040 -c 1 -i 36 -a 1 -x {1.0 2.0 23 ------- null}
+ -t 0.1912 -s 1 -d 0 -p tcp -e 1040 -c 1 -i 37 -a 1 -x {1.0 2.0 24 ------- null}
- -t 0.19136 -s 1 -d 0 -p tcp -e 1040 -c 1 -i 25 -a 1 -x {1.0 2.0 16 ------- null}
h -t 0.19136 -s 1 -d 0 -p tcp -e 1040 -c 1 -i 25 -a 1 -x {1.0 2.0 -1 ------- null}
r -t 0.1922 -s 2 -d 0 -p ack -e 40 -c 1 -i 35 -a 1 -x {2.0 1.0 12 ------- null}
+ -t 0.1922 -s 0 -d 1 -p ack -e 40 -c 1 -i 35 -a 1 -x {2.0 1.0 12 ------- null}
- -t 0.1922 -s 0 -d 1 -p ack -e 40 -c 1 -i 35 -a 1 -x {2.0 1.0 12 ------- null}
h -t 0.1922 -s 0 -d 1 -p ack -e 40 -c 1 -i 35 -a 1 -x {2.0 1.0 -1 ------- null}
r -t 0.1932 -s 0 -d 2 -p tcp -e 1040 -c 1 -i 20 -a 1 -x {1.0 2.0 13 ------- null}
+ -t 0.1932 -s 2 -d 0 -p ack -e 40 -c 1 -i 38 -a 1 -x {2.0 1.0 13 ------- null}
- -t 0.1932 -s 2 -d 0 -p ack -e 40 -c 1 -i 38 -a 1 -x {2.0 1.0 13 ------- null}
h -t 0.1932 -s 2 -d 0 -p ack -e 40 -c 1 -i 38 -a 1 -x {2.0 1.0 -1 ------- null}
r -t 0.19436 -s 1 -d 0 -p tcp -e 1040 -c 1 -i 24 -a 1 -x {1.0 2.0 15 ------- null}
+ -t 0.19436 -s 0 -d 2 -p tcp -e 1040 -c 1 -i 24 -a 1 -x {1.0 2.0 15 ------- null}
- -t 0.19436 -s 0 -d 2 -p tcp -e 1040 -c 1 -i 24 -a 1 -x {1.0 2.0 15 ------- null}
h -t 0.19436 -s 0 -d 2 -p tcp -e 1040 -c 1 -i 24 -a 1 -x {1.0 2.0 -1 ------- null}
r -t 0.19536 -s 0 -d 1 -p ack -e 40 -c 1 -i 35 -a 1 -x {2.0 1.0 12 ------- null}
+ -t 0.19536 -s 1 -d 0 -p tcp -e 1040 -c 1 -i 39 -a 1 -x {1.0 2.0 25 ------- null}
+ -t 0.19536 -s 1 -d 0 -p tcp -e 1040 -c 1 -i 40 -a 1 -x {1.0 2.0 26 ------- null}
- -t 0.19552 -s 1 -d 0 -p tcp -e 1040 -c 1 -i 27 -a 1 -x {1.0 2.0 17 ------- null}
h -t 0.19552 -s 1 -d 0 -p tcp -e 1040 -c 1 -i 27 -a 1 -x {1.0 2.0 -1 ------- null}
r -t 0.19636 -s 2 -d 0 -p ack -e 40 -c 1 -i 38 -a 1 -x {2.0 1.0 13 ------- null}
+ -t 0.19636 -s 0 -d 1 -p ack -e 40 -c 1 -i 38 -a 1 -x {2.0 1.0 13 ------- null}
- -t 0.19636 -s 0 -d 1 -p ack -e 40 -c 1 -i 38 -a 1 -x {2.0 1.0 13 ------- null}
h -t 0.19636 -s 0 -d 1 -p ack -e 40 -c 1 -i 38 -a 1 -x {2.0 1.0 -1 ------- null}
r -t 0.19736 -s 0 -d 2 -p tcp -e 1040 -c 1 -i 21 -a 1 -x {1.0 2.0 14 ------- null}
+ -t 0.19736 -s 2 -d 0 -p ack -e 40 -c 1 -i 41 -a 1 -x {2.0 1.0 14 ------- null}
- -t 0.19736 -s 2 -d 0 -p ack -e 40 -c 1 -i 41 -a 1 -x {2.0 1.0 14 ------- null}
h -t 0.19736 -s 2 -d 0 -p ack -e 40 -c 1 -i 41 -a 1 -x {2.0 1.0 -1 ------- null}
r -t 0.19852 -s 1 -d 0 -p tcp -e 1040 -c 1 -i 25 -a 1 -x {1.0 2.0 16 ------- null}
+ -t 0.19852 -s 0 -d 2 -p tcp -e 1040 -c 1 -i 25 -a 1 -x {1.0 2.0 16 ------- null}
- -t 0.19852 -s 0 -d 2 -p tcp -e 1040 -c 1 -i 25 -a 1 -x {1.0 2.0 16 ------- null}
h -t 0.19852 -s 0 -d 2 -p tcp -e 1040 -c 1 -i 25 -a 1 -x {1.0 2.0 -1 ------- null}
r -t 0.19952 -s 0 -d 1 -p ack -e 40 -c 1 -i 38 -a 1 -x {2.0 1.0 13 ------- null}
+ -t 0.19952 -s 1 -d 0 -p tcp -e 1040 -c 1 -i 42 -a 1 -x {1.0 2.0 27 ------- null}
+ -t 0.19952 -s 1 -d 0 -p tcp -e 1040 -c 1 -i 43 -a 1 -x {1.0 2.0 28 ------- null}
- -t 0.19968 -s 1 -d 0 -p tcp -e 1040 -c 1 -i 28 -a 1 -x {1.0 2.0 18 ------- null}
h -t 0.19968 -s 1 -d 0 -p tcp -e 1040 -c 1 -i 28 -a 1 -x {1.0 2.0 -1 ------- null}
+ -t 0.2 -s 3 -d 0 -p tcp -e 40 -c 2 -i 44 -a 2 -x {3.0 4.0 0 ------- null}
- -t 0.2 -s 3 -d 0 -p tcp -e 40 -c 2 -i 44 -a 2 -x {3.0 4.0 0 ------- null}
h -t 0.2 -s 3 -d 0 -p tcp -e 40 -c 2 -i 44 -a 2 -x {3.0 4.0 -1 ------- null}
r -t 0.20052 -s 2 -d 0 -p ack -e 40 -c 1 -i 41 -a 1 -x {2.0 1.0 14 ------- null}
+ -t 0.20052 -s 0 -d 1 -p ack -e 40 -c 1 -i 41 -a 1 -x {2.0 1.0 14 ------- null}
- -t 0.20052 -s 0 -d 1 -p ack -e 40 -c 1 -i 41 -a 1 -x {2.0 1.0 14 ------- null}
h -t 0.20052 -s 0 -d 1 -p ack -e 40 -c 1 -i 41 -a 1 -x {2.0 1.0 -1 ------- null}
r -t 0.20152 -s 0 -d 2 -p tcp -e 1040 -c 1 -i 24 -a 1 -x {1.0 2.0 15 ------- null}
+ -t 0.20152 -s 2 -d 0 -p ack -e 40 -c 1 -i 45 -a 1 -x {2.0 1.0 15 ------- null}
- -t 0.20152 -s 2 -d 0 -p ack -e 40 -c 1 -i 45 -a 1 -x {2.0 1.0 15 ------- null}
h -t 0.20152 -s 2 -d 0 -p ack -e 40 -c 1 -i 45 -a 1 -x {2.0 1.0 -1 ------- null}
r -t 0.20268 -s 1 -d 0 -p tcp -e 1040 -c 1 -i 27 -a 1 -x {1.0 2.0 17 ------- null}
+ -t 0.20268 -s 0 -d 2 -p tcp -e 1040 -c 1 -i 27 -a 1 -x {1.0 2.0 17 ------- null}
- -t 0.20268 -s 0 -d 2 -p tcp -e 1040 -c 1 -i 27 -a 1 -x {1.0 2.0 17 ------- null}
h -t 0.20268 -s 0 -d 2 -p tcp -e 1040 -c 1 -i 27 -a 1 -x {1.0 2.0 -1 ------- null}
r -t 0.20316 -s 3 -d 0 -p tcp -e 40 -c 2 -i 44 -a 2 -x {3.0 4.0 0 ------- null}
+ -t 0.20316 -s 0 -d 4 -p tcp -e 40 -c 2 -i 44 -a 2 -x {3.0 4.0 0 ------- null}
- -t 0.20316 -s 0 -d 4 -p tcp -e 40 -c 2 -i 44 -a 2 -x {3.0 4.0 0 ------- null}
h -t 0.20316 -s 0 -d 4 -p tcp -e 40 -c 2 -i 44 -a 2 -x {3.0 4.0 -1 ------- null}
r -t 0.20368 -s 0 -d 1 -p ack -e 40 -c 1 -i 41 -a 1 -x {2.0 1.0 14 ------- null}
+ -t 0.20368 -s 1 -d 0 -p tcp -e 1040 -c 1 -i 46 -a 1 -x {1.0 2.0 29 ------- null}
+ -t 0.20368 -s 1 -d 0 -p tcp -e 1040 -c 1 -i 47 -a 1 -x {1.0 2.0 30 ------- null}
- -t 0.20384 -s 1 -d 0 -p tcp -e 1040 -c 1 -i 30 -a 1 -x {1.0 2.0 19 ------- null}
h -t 0.20384 -s 1 -d 0 -p tcp -e 1040 -c 1 -i 30 -a 1 -x {1.0 2.0 -1 ------- null}
r -t 0.20468 -s 2 -d 0 -p ack -e 40 -c 1 -i 45 -a 1 -x {2.0 1.0 15 ------- null}
+ -t 0.20468 -s 0 -d 1 -p ack -e 40 -c 1 -i 45 -a 1 -x {2.0 1.0 15 ------- null}
- -t 0.20468 -s 0 -d 1 -p ack -e 40 -c 1 -i 45 -a 1 -x {2.0 1.0 15 ------- null}
h -t 0.20468 -s 0 -d 1 -p ack -e 40 -c 1 -i 45 -a 1 -x {2.0 1.0 -1 ------- null}
r -t 0.20568 -s 0 -d 2 -p tcp -e 1040 -c 1 -i 25 -a 1 -x {1.0 2.0 16 ------- null}
+ -t 0.20568 -s 2 -d 0 -p ack -e 40 -c 1 -i 48 -a 1 -x {2.0 1.0 16 ------- null}
- -t 0.20568 -s 2 -d 0 -p ack -e 40 -c 1 -i 48 -a 1 -x {2.0 1.0 16 ------- null}
h -t 0.20568 -s 2 -d 0 -p ack -e 40 -c 1 -i 48 -a 1 -x {2.0 1.0 -1 ------- null}
r -t 0.20632 -s 0 -d 4 -p tcp -e 40 -c 2 -i 44 -a 2 -x {3.0 4.0 0 ------- null}
+ -t 0.20632 -s 4 -d 0 -p ack -e 40 -c 2 -i 49 -a 2 -x {4.0 3.0 0 ------- null}
- -t 0.20632 -s 4 -d 0 -p ack -e 40 -c 2 -i 49 -a 2 -x {4.0 3.0 0 ------- null}
h -t 0.20632 -s 4 -d 0 -p ack -e 40 -c 2 -i 49 -a 2 -x {4.0 3.0 -1 ------- null}
r -t 0.20684 -s 1 -d 0 -p tcp -e 1040 -c 1 -i 28 -a 1 -x {1.0 2.0 18 ------- null}
+ -t 0.20684 -s 0 -d 2 -p tcp -e 1040 -c 1 -i 28 -a 1 -x {1.0 2.0 18 ------- null}
- -t 0.20684 -s 0 -d 2 -p tcp -e 1040 -c 1 -i 28 -a 1 -x {1.0 2.0 18 ------- null}
h -t 0.20684 -s 0 -d 2 -p tcp -e 1040 -c 1 -i 28 -a 1 -x {1.0 2.0 -1 ------- null}
r -t 0.20784 -s 0 -d 1 -p ack -e 40 -c 1 -i 45 -a 1 -x {2.0 1.0 15 ------- null}
+ -t 0.20784 -s 1 -d 0 -p tcp -e 1040 -c 1 -i 50 -a 1 -x {1.0 2.0 31 ------- null}
+ -t 0.20784 -s 1 -d 0 -p tcp -e 1040 -c 1 -i 51 -a 1 -x {1.0 2.0 32 ------- null}
- -t 0.208 -s 1 -d 0 -p tcp -e 1040 -c 1 -i 31 -a 1 -x {1.0 2.0 20 ------- null}
h -t 0.208 -s 1 -d 0 -p tcp -e 1040 -c 1 -i 31 -a 1 -x {1.0 2.0 -1 ------- null}
r -t 0.20884 -s 2 -d 0 -p ack -e 40 -c 1 -i 48 -a 1 -x {2.0 1.0 16 ------- null}
+ -t 0.20884 -s 0 -d 1 -p ack -e 40 -c 1 -i 48 -a 1 -x {2.0 1.0 16 ------- null}
- -t 0.20884 -s 0 -d 1 -p ack -e 40 -c 1 -i 48 -a 1 -x {2.0 1.0 16 ------- null}
h -t 0.20884 -s 0 -d 1 -p ack -e 40 -c 1 -i 48 -a 1 -x {2.0 1.0 -1 ------- null}
r -t 0.20948 -s 4 -d 0 -p ack -e 40 -c 2 -i 49 -a 2 -x {4.0 3.0 0 ------- null}
+ -t 0.20948 -s 0 -d 3 -p ack -e 40 -c 2 -i 49 -a 2 -x {4.0 3.0 0 ------- null}
- -t 0.20948 -s 0 -d 3 -p ack -e 40 -c 2 -i 49 -a 2 -x {4.0 3.0 0 ------- null}
h -t 0.20948 -s 0 -d 3 -p ack -e 40 -c 2 -i 49 -a 2 -x {4.0 3.0 -1 ------- null}
r -t 0.20984 -s 0 -d 2 -p tcp -e 1040 -c 1 -i 27 -a 1 -x {1.0 2.0 17 ------- null}
+ -t 0.20984 -s 2 -d 0 -p ack -e 40 -c 1 -i 52 -a 1 -x {2.0 1.0 17 ------- null}
- -t 0.20984 -s 2 -d 0 -p ack -e 40 -c 1 -i 52 -a 1 -x {2.0 1.0 17 ------- null}
h -t 0.20984 -s 2 -d 0 -p ack -e 40 -c 1 -i 52 -a 1 -x {2.0 1.0 -1 ------- null}
r -t 0.211 -s 1 -d 0 -p tcp -e 1040 -c 1 -i 30 -a 1 -x {1.0 2.0 19 ------- null}
+ -t 0.211 -s 0 -d 2 -p tcp -e 1040 -c 1 -i 30 -a 1 -x {1.0 2.0 19 ------- null}
- -t 0.211 -s 0 -d 2 -p tcp -e 1040 -c 1 -i 30 -a 1 -x {1.0 2.0 19 ------- null}
h -t 0.211 -s 0 -d 2 -p tcp -e 1040 -c 1 -i 30 -a 1 -x {1.0 2.0 -1 ------- null}
r -t 0.212 -s 0 -d 1 -p ack -e 40 -c 1 -i 48 -a 1 -x {2.0 1.0 16 ------- null}
+ -t 0.212 -s 1 -d 0 -p tcp -e 1040 -c 1 -i 53 -a 1 -x {1.0 2.0 33 ------- null}
+ -t 0.212 -s 1 -d 0 -p tcp -e 1040 -c 1 -i 54 -a 1 -x {1.0 2.0 34 ------- null}
- -t 0.21216 -s 1 -d 0 -p tcp -e 1040 -c 1 -i 33 -a 1 -x {1.0 2.0 21 ------- null}
h -t 0.21216 -s 1 -d 0 -p tcp -e 1040 -c 1 -i 33 -a 1 -x {1.0 2.0 -1 ------- null}
r -t 0.21264 -s 0 -d 3 -p ack -e 40 -c 2 -i 49 -a 2 -x {4.0 3.0 0 ------- null}
+ -t 0.21264 -s 3 -d 0 -p tcp -e 1040 -c 2 -i 55 -a 2 -x {3.0 4.0 1 ------- null}
- -t 0.21264 -s 3 -d 0 -p tcp -e 1040 -c 2 -i 55 -a 2 -x {3.0 4.0 1 ------- null}
h -t 0.21264 -s 3 -d 0 -p tcp -e 1040 -c 2 -i 55 -a 2 -x {3.0 4.0 -1 ------- null}
+ -t 0.21264 -s 3 -d 0 -p tcp -e 1040 -c 2 -i 56 -a 2 -x {3.0 4.0 2 ------- null}
r -t 0.213 -s 2 -d 0 -p ack -e 40 -c 1 -i 52 -a 1 -x {2.0 1.0 17 ------- null}
+ -t 0.213 -s 0 -d 1 -p ack -e 40 -c 1 -i 52 -a 1 -x {2.0 1.0 17 ------- null}
- -t 0.213 -s 0 -d 1 -p ack -e 40 -c 1 -i 52 -a 1 -x {2.0 1.0 17 ------- null}
h -t 0.213 -s 0 -d 1 -p ack -e 40 -c 1 -i 52 -a 1 -x {2.0 1.0 -1 ------- null}
r -t 0.214 -s 0 -d 2 -p tcp -e 1040 -c 1 -i 28 -a 1 -x {1.0 2.0 18 ------- null}
+ -t 0.214 -s 2 -d 0 -p ack -e 40 -c 1 -i 57 -a 1 -x {2.0 1.0 18 ------- null}
- -t 0.214 -s 2 -d 0 -p ack -e 40 -c 1 -i 57 -a 1 -x {2.0 1.0 18 ------- null}
h -t 0.214 -s 2 -d 0 -p ack -e 40 -c 1 -i 57 -a 1 -x {2.0 1.0 -1 ------- null}
r -t 0.21516 -s 1 -d 0 -p tcp -e 1040 -c 1 -i 31 -a 1 -x {1.0 2.0 20 ------- null}
+ -t 0.21516 -s 0 -d 2 -p tcp -e 1040 -c 1 -i 31 -a 1 -x {1.0 2.0 20 ------- null}
- -t 0.21516 -s 0 -d 2 -p tcp -e 1040 -c 1 -i 31 -a 1 -x {1.0 2.0 20 ------- null}
h -t 0.21516 -s 0 -d 2 -p tcp -e 1040 -c 1 -i 31 -a 1 -x {1.0 2.0 -1 ------- null}
r -t 0.21616 -s 0 -d 1 -p ack -e 40 -c 1 -i 52 -a 1 -x {2.0 1.0 17 ------- null}
+ -t 0.21616 -s 1 -d 0 -p tcp -e 1040 -c 1 -i 58 -a 1 -x {1.0 2.0 35 ------- null}
+ -t 0.21616 -s 1 -d 0 -p tcp -e 1040 -c 1 -i 59 -a 1 -x {1.0 2.0 36 ------- null}
- -t 0.21632 -s 1 -d 0 -p tcp -e 1040 -c 1 -i 34 -a 1 -x {1.0 2.0 22 ------- null}
h -t 0.21632 -s 1 -d 0 -p tcp -e 1040 -c 1 -i 34 -a 1 -x {1.0 2.0 -1 ------- null}
- -t 0.2168 -s 3 -d 0 -p tcp -e 1040 -c 2 -i 56 -a 2 -x {3.0 4.0 2 ------- null}
h -t 0.2168 -s 3 -d 0 -p tcp -e 1040 -c 2 -i 56 -a 2 -x {3.0 4.0 -1 ------- null}
r -t 0.21716 -s 2 -d 0 -p ack -e 40 -c 1 -i 57 -a 1 -x {2.0 1.0 18 ------- null}
+ -t 0.21716 -s 0 -d 1 -p ack -e 40 -c 1 -i 57 -a 1 -x {2.0 1.0 18 ------- null}
- -t 0.21716 -s 0 -d 1 -p ack -e 40 -c 1 -i 57 -a 1 -x {2.0 1.0 18 ------- null}
h -t 0.21716 -s 0 -d 1 -p ack -e 40 -c 1 -i 57 -a 1 -x {2.0 1.0 -1 ------- null}
r -t 0.21816 -s 0 -d 2 -p tcp -e 1040 -c 1 -i 30 -a 1 -x {1.0 2.0 19 ------- null}
+ -t 0.21816 -s 2 -d 0 -p ack -e 40 -c 1 -i 60 -a 1 -x {2.0 1.0 19 ------- null}