V -t * -v 1.0a5 -a 0
A -t * -n 1 -p 0 -o 0x7fffffff -c 30 -a 1
A -t * -h 1 -m 1073741823 -s 0
n -t * -a 0 -s 0 -S UP -v circle -c black -i black
n -t * -a 1 -s 1 -S UP -v circle -c black -i black
l -t * -s 0 -d 1 -S UP -r 1000000 -D 9.9999999999999995e-07 -c black
+ -t 0.5 -s 0 -d 1 -p cbr -e 256 -c 0 -i 0 -a 0 -x {0.0 1.0 0 ------- null}
- -t 0.5 -s 0 -d 1 -p cbr -e 256 -c 0 -i 0 -a 0 -x {0.0 1.0 0 ------- null}
h -t 0.5 -s 0 -d 1 -p cbr -e 256 -c 0 -i 0 -a 0 -x {0.0 1.0 -1 ------- null}
+ -t 0.50028 -s 0 -d 1 -p cbr -e 256 -c 0 -i 1 -a 0 -x {0.0 1.0 1 ------- null}
+ -t 0.50056 -s 0 -d 1 -p cbr -e 256 -c 0 -i 2 -a 0 -x {0.0 1.0 2 ------- null}
+ -t 0.50084 -s 0 -d 1 -p cbr -e 256 -c 0 -i 3 -a 0 -x {0.0 1.0 3 ------- null}
+ -t 0.50112 -s 0 -d 1 -p cbr -e 256 -c 0 -i 4 -a 0 -x {0.0 1.0 4 ------- null}
+ -t 0.5014 -s 0 -d 1 -p cbr -e 256 -c 0 -i 5 -a 0 -x {0.0 1.0 5 ------- null}
+ -t 0.50168 -s 0 -d 1 -p cbr -e 256 -c 0 -i 6 -a 0 -x {0.0 1.0 6 ------- null}
+ -t 0.50196 -s 0 -d 1 -p cbr -e 256 -c 0 -i 7 -a 0 -x {0.0 1.0 7 ------- null}
- -t 0.502048 -s 0 -d 1 -p cbr -e 256 -c 0 -i 1 -a 0 -x {0.0 1.0 1 ------- null}
h -t 0.502048 -s 0 -d 1 -p cbr -e 256 -c 0 -i 1 -a 0 -x {0.0 1.0 -1 ------- null}
r -t 0.502049 -s 0 -d 1 -p cbr -e 256 -c 0 -i 0 -a 0 -x {0.0 1.0 0 ------- null}
+ -t 0.50224 -s 0 -d 1 -p cbr -e 256 -c 0 -i 8 -a 0 -x {0.0 1.0 8 ------- null}
+ -t 0.50252 -s 0 -d 1 -p cbr -e 256 -c 0 -i 9 -a 0 -x {0.0 1.0 9 ------- null}
+ -t 0.502799999999999 -s 0 -d 1 -p cbr -e 256 -c 0 -i 10 -a 0 -x {0.0 1.0 10 ------- null}
+ -t 0.503079999999999 -s 0 -d 1 -p cbr -e 256 -c 0 -i 11 -a 0 -x {0.0 1.0 11 ------- null}
+ -t 0.503359999999999 -s 0 -d 1 -p cbr -e 256 -c 0 -i 12 -a 0 -x {0.0 1.0 12 ------- null}
+ -t 0.503639999999999 -s 0 -d 1 -p cbr -e 256 -c 0 -i 13 -a 0 -x {0.0 1.0 13 ------- null}
+ -t 0.503919999999999 -s 0 -d 1 -p cbr -e 256 -c 0 -i 14 -a 0 -x {0.0 1.0 14 ------- null}
- -t 0.504096 -s 0 -d 1 -p cbr -e 256 -c 0 -i 2 -a 0 -x {0.0 1.0 2 ------- null}
h -t 0.504096 -s 0 -d 1 -p cbr -e 256 -c 0 -i 2 -a 0 -x {0.0 1.0 -1 ------- null}
r -t 0.504097 -s 0 -d 1 -p cbr -e 256 -c 0 -i 1 -a 0 -x {0.0 1.0 1 ------- null}
+ -t 0.504199999999999 -s 0 -d 1 -p cbr -e 256 -c 0 -i 15 -a 0 -x {0.0 1.0 15 ------- null}
+ -t 0.504479999999999 -s 0 -d 1 -p cbr -e 256 -c 0 -i 16 -a 0 -x {0.0 1.0 16 ------- null}
+ -t 0.504759999999999 -s 0 -d 1 -p cbr -e 256 -c 0 -i 17 -a 0 -x {0.0 1.0 17 ------- null}
+ -t 0.505039999999999 -s 0 -d 1 -p cbr -e 256 -c 0 -i 18 -a 0 -x {0.0 1.0 18 ------- null}
+ -t 0.505319999999999 -s 0 -d 1 -p cbr -e 256 -c 0 -i 19 -a 0 -x {0.0 1.0 19 ------- null}
+ -t 0.505599999999999 -s 0 -d 1 -p cbr -e 256 -c 0 -i 20 -a 0 -x {0.0 1.0 20 ------- null}
+ -t 0.505879999999999 -s 0 -d 1 -p cbr -e 256 -c 0 -i 21 -a 0 -x {0.0 1.0 21 ------- null}
- -t 0.506144 -s 0 -d 1 -p cbr -e 256 -c 0 -i 3 -a 0 -x {0.0 1.0 3 ------- null}
h -t 0.506144 -s 0 -d 1 -p cbr -e 256 -c 0 -i 3 -a 0 -x {0.0 1.0 -1 ------- null}
r -t 0.506145 -s 0 -d 1 -p cbr -e 256 -c 0 -i 2 -a 0 -x {0.0 1.0 2 ------- null}
+ -t 0.506159999999999 -s 0 -d 1 -p cbr -e 256 -c 0 -i 22 -a 0 -x {0.0 1.0 22 ------- null}
+ -t 0.506439999999999 -s 0 -d 1 -p cbr -e 256 -c 0 -i 23 -a 0 -x {0.0 1.0 23 ------- null}
+ -t 0.506719999999999 -s 0 -d 1 -p cbr -e 256 -c 0 -i 24 -a 0 -x {0.0 1.0 24 ------- null}
+ -t 0.506999999999999 -s 0 -d 1 -p cbr -e 256 -c 0 -i 25 -a 0 -x {0.0 1.0 25 ------- null}
+ -t 0.507279999999999 -s 0 -d 1 -p cbr -e 256 -c 0 -i 26 -a 0 -x {0.0 1.0 26 ------- null}
+ -t 0.507559999999999 -s 0 -d 1 -p cbr -e 256 -c 0 -i 27 -a 0 -x {0.0 1.0 27 ------- null}
+ -t 0.507839999999999 -s 0 -d 1 -p cbr -e 256 -c 0 -i 28 -a 0 -x {0.0 1.0 28 ------- null}
+ -t 0.508119999999998 -s 0 -d 1 -p cbr -e 256 -c 0 -i 29 -a 0 -x {0.0 1.0 29 ------- null}
- -t 0.508192 -s 0 -d 1 -p cbr -e 256 -c 0 -i 4 -a 0 -x {0.0 1.0 4 ------- null}
h -t 0.508192 -s 0 -d 1 -p cbr -e 256 -c 0 -i 4 -a 0 -x {0.0 1.0 -1 ------- null}
r -t 0.508193 -s 0 -d 1 -p cbr -e 256 -c 0 -i 3 -a 0 -x {0.0 1.0 3 ------- null}
+ -t 0.508399999999998 -s 0 -d 1 -p cbr -e 256 -c 0 -i 30 -a 0 -x {0.0 1.0 30 ------- null}
+ -t 0.508679999999998 -s 0 -d 1 -p cbr -e 256 -c 0 -i 31 -a 0 -x {0.0 1.0 31 ------- null}
+ -t 0.508959999999998 -s 0 -d 1 -p cbr -e 256 -c 0 -i 32 -a 0 -x {0.0 1.0 32 ------- null}
+ -t 0.509239999999998 -s 0 -d 1 -p cbr -e 256 -c 0 -i 33 -a 0 -x {0.0 1.0 33 ------- null}
+ -t 0.509519999999998 -s 0 -d 1 -p cbr -e 256 -c 0 -i 34 -a 0 -x {0.0 1.0 34 ------- null}
+ -t 0.509799999999998 -s 0 -d 1 -p cbr -e 256 -c 0 -i 35 -a 0 -x {0.0 1.0 35 ------- null}
+ -t 0.510079999999998 -s 0 -d 1 -p cbr -e 256 -c 0 -i 36 -a 0 -x {0.0 1.0 36 ------- null}
- -t 0.51024 -s 0 -d 1 -p cbr -e 256 -c 0 -i 5 -a 0 -x {0.0 1.0 5 ------- null}
h -t 0.51024 -s 0 -d 1 -p cbr -e 256 -c 0 -i 5 -a 0 -x {0.0 1.0 -1 ------- null}
r -t 0.510241 -s 0 -d 1 -p cbr -e 256 -c 0 -i 4 -a 0 -x {0.0 1.0 4 ------- null}
+ -t 0.510359999999998 -s 0 -d 1 -p cbr -e 256 -c 0 -i 37 -a 0 -x {0.0 1.0 37 ------- null}
+ -t 0.510639999999998 -s 0 -d 1 -p cbr -e 256 -c 0 -i 38 -a 0 -x {0.0 1.0 38 ------- null}
+ -t 0.510919999999998 -s 0 -d 1 -p cbr -e 256 -c 0 -i 39 -a 0 -x {0.0 1.0 39 ------- null}
+ -t 0.511199999999998 -s 0 -d 1 -p cbr -e 256 -c 0 -i 40 -a 0 -x {0.0 1.0 40 ------- null}
+ -t 0.511479999999998 -s 0 -d 1 -p cbr -e 256 -c 0 -i 41 -a 0 -x {0.0 1.0 41 ------- null}
+ -t 0.511759999999998 -s 0 -d 1 -p cbr -e 256 -c 0 -i 42 -a 0 -x {0.0 1.0 42 ------- null}
+ -t 0.512039999999998 -s 0 -d 1 -p cbr -e 256 -c 0 -i 43 -a 0 -x {0.0 1.0 43 ------- null}
- -t 0.512288 -s 0 -d 1 -p cbr -e 256 -c 0 -i 6 -a 0 -x {0.0 1.0 6 ------- null}
h -t 0.512288 -s 0 -d 1 -p cbr -e 256 -c 0 -i 6 -a 0 -x {0.0 1.0 -1 ------- null}
r -t 0.512289 -s 0 -d 1 -p cbr -e 256 -c 0 -i 5 -a 0 -x {0.0 1.0 5 ------- null}
+ -t 0.512319999999998 -s 0 -d 1 -p cbr -e 256 -c 0 -i 44 -a 0 -x {0.0 1.0 44 ------- null}
+ -t 0.512599999999998 -s 0 -d 1 -p cbr -e 256 -c 0 -i 45 -a 0 -x {0.0 1.0 45 ------- null}
+ -t 0.512879999999998 -s 0 -d 1 -p cbr -e 256 -c 0 -i 46 -a 0 -x {0.0 1.0 46 ------- null}
+ -t 0.513159999999998 -s 0 -d 1 -p cbr -e 256 -c 0 -i 47 -a 0 -x {0.0 1.0 47 ------- null}
+ -t 0.513439999999997 -s 0 -d 1 -p cbr -e 256 -c 0 -i 48 -a 0 -x {0.0 1.0 48 ------- null}
+ -t 0.513719999999997 -s 0 -d 1 -p cbr -e 256 -c 0 -i 49 -a 0 -x {0.0 1.0 49 ------- null}
+ -t 0.513999999999997 -s 0 -d 1 -p cbr -e 256 -c 0 -i 50 -a 0 -x {0.0 1.0 50 ------- null}
+ -t 0.514279999999997 -s 0 -d 1 -p cbr -e 256 -c 0 -i 51 -a 0 -x {0.0 1.0 51 ------- null}
- -t 0.514336 -s 0 -d 1 -p cbr -e 256 -c 0 -i 7 -a 0 -x {0.0 1.0 7 ------- null}
h -t 0.514336 -s 0 -d 1 -p cbr -e 256 -c 0 -i 7 -a 0 -x {0.0 1.0 -1 ------- null}
r -t 0.514337 -s 0 -d 1 -p cbr -e 256 -c 0 -i 6 -a 0 -x {0.0 1.0 6 ------- null}
+ -t 0.514559999999997 -s 0 -d 1 -p cbr -e 256 -c 0 -i 52 -a 0 -x {0.0 1.0 52 ------- null}
+ -t 0.514839999999997 -s 0 -d 1 -p cbr -e 256 -c 0 -i 53 -a 0 -x {0.0 1.0 53 ------- null}
+ -t 0.515119999999997 -s 0 -d 1 -p cbr -e 256 -c 0 -i 54 -a 0 -x {0.0 1.0 54 ------- null}
+ -t 0.515399999999997 -s 0 -d 1 -p cbr -e 256 -c 0 -i 55 -a 0 -x {0.0 1.0 55 ------- null}
+ -t 0.515679999999997 -s 0 -d 1 -p cbr -e 256 -c 0 -i 56 -a 0 -x {0.0 1.0 56 ------- null}
+ -t 0.515959999999997 -s 0 -d 1 -p cbr -e 256 -c 0 -i 57 -a 0 -x {0.0 1.0 57 ------- null}
d -t 0.515959999999997 -s 0 -d 1 -p cbr -e 256 -c 0 -i 57 -a 0 -x {0.0 1.0 57 ------- null}
+ -t 0.516239999999997 -s 0 -d 1 -p cbr -e 256 -c 0 -i 58 -a 0 -x {0.0 1.0 58 ------- null}
d -t 0.516239999999997 -s 0 -d 1 -p cbr -e 256 -c 0 -i 58 -a 0 -x {0.0 1.0 58 ------- null}
- -t 0.516384 -s 0 -d 1 -p cbr -e 256 -c 0 -i 8 -a 0 -x {0.0 1.0 8 ------- null}
h -t 0.516384 -s 0 -d 1 -p cbr -e 256 -c 0 -i 8 -a 0 -x {0.0 1.0 -1 ------- null}
r -t 0.516385 -s 0 -d 1 -p cbr -e 256 -c 0 -i 7 -a 0 -x {0.0 1.0 7 ------- null}
+ -t 0.516519999999997 -s 0 -d 1 -p cbr -e 256 -c 0 -i 59 -a 0 -x {0.0 1.0 59 ------- null}
+ -t 0.516799999999997 -s 0 -d 1 -p cbr -e 256 -c 0 -i 60 -a 0 -x {0.0 1.0 60 ------- null}
d -t 0.516799999999997 -s 0 -d 1 -p cbr -e 256 -c 0 -i 60 -a 0 -x {0.0 1.0 60 ------- null}
+ -t 0.517079999999997 -s 0 -d 1 -p cbr -e 256 -c 0 -i 61 -a 0 -x {0.0 1.0 61 ------- null}
d -t 0.517079999999997 -s 0 -d 1 -p cbr -e 256 -c 0 -i 61 -a 0 -x {0.0 1.0 61 ------- null}
+ -t 0.517359999999997 -s 0 -d 1 -p cbr -e 256 -c 0 -i 62 -a 0 -x {0.0 1.0 62 ------- null}
d -t 0.517359999999997 -s 0 -d 1 -p cbr -e 256 -c 0 -i 62 -a 0 -x {0.0 1.0 62 ------- null}
+ -t 0.517639999999997 -s 0 -d 1 -p cbr -e 256 -c 0 -i 63 -a 0 -x {0.0 1.0 63 ------- null}
d -t 0.517639999999997 -s 0 -d 1 -p cbr -e 256 -c 0 -i 63 -a 0 -x {0.0 1.0 63 ------- null}
+ -t 0.517919999999997 -s 0 -d 1 -p cbr -e 256 -c 0 -i 64 -a 0 -x {0.0 1.0 64 ------- null}
d -t 0.517919999999997 -s 0 -d 1 -p cbr -e 256 -c 0 -i 64 -a 0 -x {0.0 1.0 64 ------- null}
+ -t 0.518199999999997 -s 0 -d 1 -p cbr -e 256 -c 0 -i 65 -a 0 -x {0.0 1.0 65 ------- null}
d -t 0.518199999999997 -s 0 -d 1 -p cbr -e 256 -c 0 -i 65 -a 0 -x {0.0 1.0 65 ------- null}
- -t 0.518432 -s 0 -d 1 -p cbr -e 256 -c 0 -i 9 -a 0 -x {0.0 1.0 9 ------- null}
h -t 0.518432 -s 0 -d 1 -p cbr -e 256 -c 0 -i 9 -a 0 -x {0.0 1.0 -1 ------- null}
r -t 0.518433 -s 0 -d 1 -p cbr -e 256 -c 0 -i 8 -a 0 -x {0.0 1.0 8 ------- null}
+ -t 0.518479999999996 -s 0 -d 1 -p cbr -e 256 -c 0 -i 66 -a 0 -x {0.0 1.0 66 ------- null}
+ -t 0.518759999999996 -s 0 -d 1 -p cbr -e 256 -c 0 -i 67 -a 0 -x {0.0 1.0 67 ------- null}
d -t 0.518759999999996 -s 0 -d 1 -p cbr -e 256 -c 0 -i 67 -a 0 -x {0.0 1.0 67 ------- null}
+ -t 0.519039999999996 -s 0 -d 1 -p cbr -e 256 -c 0 -i 68 -a 0 -x {0.0 1.0 68 ------- null}
d -t 0.519039999999996 -s 0 -d 1 -p cbr -e 256 -c 0 -i 68 -a 0 -x {0.0 1.0 68 ------- null}
+ -t 0.519319999999996 -s 0 -d 1 -p cbr -e 256 -c 0 -i 69 -a 0 -x {0.0 1.0 69 ------- null}
d -t 0.519319999999996 -s 0 -d 1 -p cbr -e 256 -c 0 -i 69 -a 0 -x {0.0 1.0 69 ------- null}
+ -t 0.519599999999996 -s 0 -d 1 -p cbr -e 256 -c 0 -i 70 -a 0 -x {0.0 1.0 70 ------- null}
d -t 0.519599999999996 -s 0 -d 1 -p cbr -e 256 -c 0 -i 70 -a 0 -x {0.0 1.0 70 ------- null}
+ -t 0.519879999999996 -s 0 -d 1 -p cbr -e 256 -c 0 -i 71 -a 0 -x {0.0 1.0 71 ------- null}
d -t 0.519879999999996 -s 0 -d 1 -p cbr -e 256 -c 0 -i 71 -a 0 -x {0.0 1.0 71 ------- null}
+ -t 0.520159999999996 -s 0 -d 1 -p cbr -e 256 -c 0 -i 72 -a 0 -x {0.0 1.0 72 ------- null}
d -t 0.520159999999996 -s 0 -d 1 -p cbr -e 256 -c 0 -i 72 -a 0 -x {0.0 1.0 72 ------- null}
+ -t 0.520439999999996 -s 0 -d 1 -p cbr -e 256 -c 0 -i 73 -a 0 -x {0.0 1.0 73 ------- null}
d -t 0.520439999999996 -s 0 -d 1 -p cbr -e 256 -c 0 -i 73 -a 0 -x {0.0 1.0 73 ------- null}
- -t 0.52048 -s 0 -d 1 -p cbr -e 256 -c 0 -i 10 -a 0 -x {0.0 1.0 10 ------- null}
h -t 0.52048 -s 0 -d 1 -p cbr -e 256 -c 0 -i 10 -a 0 -x {0.0 1.0 -1 ------- null}
r -t 0.520481 -s 0 -d 1 -p cbr -e 256 -c 0 -i 9 -a 0 -x {0.0 1.0 9 ------- null}
+ -t 0.520719999999996 -s 0 -d 1 -p cbr -e 256 -c 0 -i 74 -a 0 -x {0.0 1.0 74 ------- null}
+ -t 0.520999999999996 -s 0 -d 1 -p cbr -e 256 -c 0 -i 75 -a 0 -x {0.0 1.0 75 ------- null}
d -t 0.520999999999996 -s 0 -d 1 -p cbr -e 256 -c 0 -i 75 -a 0 -x {0.0 1.0 75 ------- null}
+ -t 0.521279999999996 -s 0 -d 1 -p cbr -e 256 -c 0 -i 76 -a 0 -x {0.0 1.0 76 ------- null}
d -t 0.521279999999996 -s 0 -d 1 -p cbr -e 256 -c 0 -i 76 -a 0 -x {0.0 1.0 76 ------- null}
+ -t 0.521559999999996 -s 0 -d 1 -p cbr -e 256 -c 0 -i 77 -a 0 -x {0.0 1.0 77 ------- null}
d -t 0.521559999999996 -s 0 -d 1 -p cbr -e 256 -c 0 -i 77 -a 0 -x {0.0 1.0 77 ------- null}
+ -t 0.521839999999996 -s 0 -d 1 -p cbr -e 256 -c 0 -i 78 -a 0 -x {0.0 1.0 78 ------- null}
d -t 0.521839999999996 -s 0 -d 1 -p cbr -e 256 -c 0 -i 78 -a 0 -x {0.0 1.0 78 ------- null}
+ -t 0.522119999999996 -s 0 -d 1 -p cbr -e 256 -c 0 -i 79 -a 0 -x {0.0 1.0 79 ------- null}
d -t 0.522119999999996 -s 0 -d 1 -p cbr -e 256 -c 0 -i 79 -a 0 -x {0.0 1.0 79 ------- null}
+ -t 0.522399999999996 -s 0 -d 1 -p cbr -e 256 -c 0 -i 80 -a 0 -x {0.0 1.0 80 ------- null}
d -t 0.522399999999996 -s 0 -d 1 -p cbr -e 256 -c 0 -i 80 -a 0 -x {0.0 1.0 80 ------- null}
- -t 0.522528000000001 -s 0 -d 1 -p cbr -e 256 -c 0 -i 11 -a 0 -x {0.0 1.0 11 ------- null}
h -t 0.522528000000001 -s 0 -d 1 -p cbr -e 256 -c 0 -i 11 -a 0 -x {0.0 1.0 -1 ------- null}
r -t 0.522529 -s 0 -d 1 -p cbr -e 256 -c 0 -i 10 -a 0 -x {0.0 1.0 10 ------- null}
+ -t 0.522679999999996 -s 0 -d 1 -p cbr -e 256 -c 0 -i 81 -a 0 -x {0.0 1.0 81 ------- null}
+ -t 0.522959999999996 -s 0 -d 1 -p cbr -e 256 -c 0 -i 82 -a 0 -x {0.0 1.0 82 ------- null}
d -t 0.522959999999996 -s 0 -d 1 -p cbr -e 256 -c 0 -i 82 -a 0 -x {0.0 1.0 82 ------- null}
+ -t 0.523239999999996 -s 0 -d 1 -p cbr -e 256 -c 0 -i 83 -a 0 -x {0.0 1.0 83 ------- null}
d -t 0.523239999999996 -s 0 -d 1 -p cbr -e 256 -c 0 -i 83 -a 0 -x {0.0 1.0 83 ------- null}
+ -t 0.523519999999996 -s 0 -d 1 -p cbr -e 256 -c 0 -i 84 -a 0 -x {0.0 1.0 84 ------- null}
d -t 0.523519999999996 -s 0 -d 1 -p cbr -e 256 -c 0 -i 84 -a 0 -x {0.0 1.0 84 ------- null}
+ -t 0.523799999999995 -s 0 -d 1 -p cbr -e 256 -c 0 -i 85 -a 0 -x {0.0 1.0 85 ------- null}
d -t 0.523799999999995 -s 0 -d 1 -p cbr -e 256 -c 0 -i 85 -a 0 -x {0.0 1.0 85 ------- null}
+ -t 0.524079999999995 -s 0 -d 1 -p cbr -e 256 -c 0 -i 86 -a 0 -x {0.0 1.0 86 ------- null}
d -t 0.524079999999995 -s 0 -d 1 -p cbr -e 256 -c 0 -i 86 -a 0 -x {0.0 1.0 86 ------- null}
+ -t 0.524359999999995 -s 0 -d 1 -p cbr -e 256 -c 0 -i 87 -a 0 -x {0.0 1.0 87 ------- null}
d -t 0.524359999999995 -s 0 -d 1 -p cbr -e 256 -c 0 -i 87 -a 0 -x {0.0 1.0 87 ------- null}
- -t 0.524576000000001 -s 0 -d 1 -p cbr -e 256 -c 0 -i 12 -a 0 -x {0.0 1.0 12 ------- null}
h -t 0.524576000000001 -s 0 -d 1 -p cbr -e 256 -c 0 -i 12 -a 0 -x {0.0 1.0 -1 ------- null}
r -t 0.524577000000001 -s 0 -d 1 -p cbr -e 256 -c 0 -i 11 -a 0 -x {0.0 1.0 11 ------- null}
+ -t 0.524639999999995 -s 0 -d 1 -p cbr -e 256 -c 0 -i 88 -a 0 -x {0.0 1.0 88 ------- null}
+ -t 0.524919999999995 -s 0 -d 1 -p cbr -e 256 -c 0 -i 89 -a 0 -x {0.0 1.0 89 ------- null}
d -t 0.524919999999995 -s 0 -d 1 -p cbr -e 256 -c 0 -i 89 -a 0 -x {0.0 1.0 89 ------- null}
+ -t 0.525199999999995 -s 0 -d 1 -p cbr -e 256 -c 0 -i 90 -a 0 -x {0.0 1.0 90 ------- null}
d -t 0.525199999999995 -s 0 -d 1 -p cbr -e 256 -c 0 -i 90 -a 0 -x {0.0 1.0 90 ------- null}
+ -t 0.525479999999995 -s 0 -d 1 -p cbr -e 256 -c 0 -i 91 -a 0 -x {0.0 1.0 91 ------- null}
d -t 0.525479999999995 -s 0 -d 1 -p cbr -e 256 -c 0 -i 91 -a 0 -x {0.0 1.0 91 ------- null}
+ -t 0.525759999999995 -s 0 -d 1 -p cbr -e 256 -c 0 -i 92 -a 0 -x {0.0 1.0 92 ------- null}
d -t 0.525759999999995 -s 0 -d 1 -p cbr -e 256 -c 0 -i 92 -a 0 -x {0.0 1.0 92 ------- null}
+ -t 0.526039999999995 -s 0 -d 1 -p cbr -e 256 -c 0 -i 93 -a 0 -x {0.0 1.0 93 ------- null}
d -t 0.526039999999995 -s 0 -d 1 -p cbr -e 256 -c 0 -i 93 -a 0 -x {0.0 1.0 93 ------- null}
+ -t 0.526319999999995 -s 0 -d 1 -p cbr -e 256 -c 0 -i 94 -a 0 -x {0.0 1.0 94 ------- null}
d -t 0.526319999999995 -s 0 -d 1 -p cbr -e 256 -c 0 -i 94 -a 0 -x {0.0 1.0 94 ------- null}
+ -t 0.526599999999995 -s 0 -d 1 -p cbr -e 256 -c 0 -i 95 -a 0 -x {0.0 1.0 95 ------- null}
d -t 0.526599999999995 -s 0 -d 1 -p cbr -e 256 -c 0 -i 95 -a 0 -x {0.0 1.0 95 ------- null}
- -t 0.526624000000001 -s 0 -d 1 -p cbr -e 256 -c 0 -i 13 -a 0 -x {0.0 1.0 13 ------- null}
h -t 0.526624000000001 -s 0 -d 1 -p cbr -e 256 -c 0 -i 13 -a 0 -x {0.0 1.0 -1 ------- null}
r -t 0.526625000000001 -s 0 -d 1 -p cbr -e 256 -c 0 -i 12 -a 0 -x {0.0 1.0 12 ------- null}
+ -t 0.526879999999995 -s 0 -d 1 -p cbr -e 256 -c 0 -i 96 -a 0 -x {0.0 1.0 96 ------- null}
+ -t 0.527159999999995 -s 0 -d 1 -p cbr -e 256 -c 0 -i 97 -a 0 -x {0.0 1.0 97 ------- null}
d -t 0.527159999999995 -s 0 -d 1 -p cbr -e 256 -c 0 -i 97 -a 0 -x {0.0 1.0 97 ------- null}
+ -t 0.527439999999995 -s 0 -d 1 -p cbr -e 256 -c 0 -i 98 -a 0 -x {0.0 1.0 98 ------- null}
d -t 0.527439999999995 -s 0 -d 1 -p cbr -e 256 -c 0 -i 98 -a 0 -x {0.0 1.0 98 ------- null}
+ -t 0.527719999999995 -s 0 -d 1 -p cbr -e 256 -c 0 -i 99 -a 0 -x {0.0 1.0 99 ------- null}
d -t 0.527719999999995 -s 0 -d 1 -p cbr -e 256 -c 0 -i 99 -a 0 -x {0.0 1.0 99 ------- null}
+ -t 0.527999999999995 -s 0 -d 1 -p cbr -e 256 -c 0 -i 100 -a 0 -x {0.0 1.0 100 ------- null}
d -t 0.527999999999995 -s 0 -d 1 -p cbr -e 256 -c 0 -i 100 -a 0 -x {0.0 1.0 100 ------- null}
+ -t 0.528279999999995 -s 0 -d 1 -p cbr -e 256 -c 0 -i 101 -a 0 -x {0.0 1.0 101 ------- null}
d -t 0.528279999999995 -s 0 -d 1 -p cbr -e 256 -c 0 -i 101 -a 0 -x {0.0 1.0 101 ------- null}
+ -t 0.528559999999995 -s 0 -d 1 -p cbr -e 256 -c 0 -i 102 -a 0 -x {0.0 1.0 102 ------- null}
d -t 0.528559999999995 -s 0 -d 1 -p cbr -e 256 -c 0 -i 102 -a 0 -x {0.0 1.0 102 ------- null}
- -t 0.528672000000001 -s 0 -d 1 -p cbr -e 256 -c 0 -i 14 -a 0 -x {0.0 1.0 14 ------- null}
h -t 0.528672000000001 -s 0 -d 1 -p cbr -e 256 -c 0 -i 14 -a 0 -x {0.0 1.0 -1 ------- null}
r -t 0.528673000000001 -s 0 -d 1 -p cbr -e 256 -c 0 -i 13 -a 0 -x {0.0 1.0 13 ------- null}
+ -t 0.528839999999995 -s 0 -d 1 -p cbr -e 256 -c 0 -i 103 -a 0 -x {0.0 1.0 103 ------- null}
+ -t 0.529119999999994 -s 0 -d 1 -p cbr -e 256 -c 0 -i 104 -a 0 -x {0.0 1.0 104 ------- null}
d -t 0.529119999999994 -s 0 -d 1 -p cbr -e 256 -c 0 -i 104 -a 0 -x {0.0 1.0 104 ------- null}
+ -t 0.529399999999994 -s 0 -d 1 -p cbr -e 256 -c 0 -i 105 -a 0 -x {0.0 1.0 105 ------- null}
d -t 0.529399999999994 -s 0 -d 1 -p cbr -e 256 -c 0 -i 105 -a 0 -x {0.0 1.0 105 ------- null}
+ -t 0.529679999999994 -s 0 -d 1 -p cbr -e 256 -c 0 -i 106 -a 0 -x {0.0 1.0 106 ------- null}
d -t 0.529679999999994 -s 0 -d 1 -p cbr -e 256 -c 0 -i 106 -a 0 -x {0.0 1.0 106 ------- null}
+ -t 0.529959999999994 -s 0 -d 1 -p cbr -e 256 -c 0 -i 107 -a 0 -x {0.0 1.0 107 ------- null}
d -t 0.529959999999994 -s 0 -d 1 -p cbr -e 256 -c 0 -i 107 -a 0 -x {0.0 1.0 107 ------- null}
+ -t 0.530239999999994 -s 0 -d 1 -p cbr -e 256 -c 0 -i 108 -a 0 -x {0.0 1.0 108 ------- null}
d -t 0.530239999999994 -s 0 -d 1 -p cbr -e 256 -c 0 -i 108 -a 0 -x {0.0 1.0 108 ------- null}
+ -t 0.530519999999994 -s 0 -d 1 -p cbr -e 256 -c 0 -i 109 -a 0 -x {0.0 1.0 109 ------- null}
d -t 0.530519999999994 -s 0 -d 1 -p cbr -e 256 -c 0 -i 109 -a 0 -x {0.0 1.0 109 ------- null}
- -t 0.530720000000001 -s 0 -d 1 -p cbr -e 256 -c 0 -i 15 -a 0 -x {0.0 1.0 15 ------- null}
h -t 0.530720000000001 -s 0 -d 1 -p cbr -e 256 -c 0 -i 15 -a 0 -x {0.0 1.0 -1 ------- null}
r -t 0.530721000000001 -s 0 -d 1 -p cbr -e 256 -c 0 -i 14 -a 0 -x {0.0 1.0 14 ------- null}
+ -t 0.530799999999994 -s 0 -d 1 -p cbr -e 256 -c 0 -i 110 -a 0 -x {0.0 1.0 110 ------- null}
+ -t 0.531079999999994 -s 0 -d 1 -p cbr -e 256 -c 0 -i 111 -a 0 -x {0.0 1.0 111 ------- null}
d -t 0.531079999999994 -s 0 -d 1 -p cbr -e 256 -c 0 -i 111 -a 0 -x {0.0 1.0 111 ------- null}
+ -t 0.531359999999994 -s 0 -d 1 -p cbr -e 256 -c 0 -i 112 -a 0 -x {0.0 1.0 112 ------- null}
d -t 0.531359999999994 -s 0 -d 1 -p cbr -e 256 -c 0 -i 112 -a 0 -x {0.0 1.0 112 ------- null}
+ -t 0.531639999999994 -s 0 -d 1 -p cbr -e 256 -c 0 -i 113 -a 0 -x {0.0 1.0 113 ------- null}
d -t 0.531639999999994 -s 0 -d 1 -p cbr -e 256 -c 0 -i 113 -a 0 -x {0.0 1.0 113 ------- null}
+ -t 0.531919999999994 -s 0 -d 1 -p cbr -e 256 -c 0 -i 114 -a 0 -x {0.0 1.0 114 ------- null}
d -t 0.531919999999994 -s 0 -d 1 -p cbr -e 256 -c 0 -i 114 -a 0 -x {0.0 1.0 114 ------- null}
+ -t 0.532199999999994 -s 0 -d 1 -p cbr -e 256 -c 0 -i 115 -a 0 -x {0.0 1.0 115 ------- null}
d -t 0.532199999999994 -s 0 -d 1 -p cbr -e 256 -c 0 -i 115 -a 0 -x {0.0 1.0 115 ------- null}
+ -t 0.532479999999994 -s 0 -d 1 -p cbr -e 256 -c 0 -i 116 -a 0 -x {0.0 1.0 116 ------- null}
d -t 0.532479999999994 -s 0 -d 1 -p cbr -e 256 -c 0 -i 116 -a 0 -x {0.0 1.0 116 ------- null}
+ -t 0.532759999999994 -s 0 -d 1 -p cbr -e 256 -c 0 -i 117 -a 0 -x {0.0 1.0 117 ------- null}
d -t 0.532759999999994 -s 0 -d 1 -p cbr -e 256 -c 0 -i 117 -a 0 -x {0.0 1.0 117 ------- null}
- -t 0.532768000000001 -s 0 -d 1 -p cbr -e 256 -c 0 -i 16 -a 0 -x {0.0 1.0 16 ------- null}
h -t 0.532768000000001 -s 0 -d 1 -p cbr -e 256 -c 0 -i 16 -a 0 -x {0.0 1.0 -1 ------- null}
r -t 0.532769000000001 -s 0 -d 1 -p cbr -e 256 -c 0 -i 15 -a 0 -x {0.0 1.0 15 ------- null}
+ -t 0.533039999999994 -s 0 -d 1 -p cbr -e 256 -c 0 -i 118 -a 0 -x {0.0 1.0 118 ------- null}
+ -t 0.533319999999994 -s 0 -d 1 -p cbr -e 256 -c 0 -i 119 -a 0 -x {0.0 1.0 119 ------- null}
d -t 0.533319999999994 -s 0 -d 1 -p cbr -e 256 -c 0 -i 119 -a 0 -x {0.0 1.0 119 ------- null}
+ -t 0.533599999999994 -s 0 -d 1 -p cbr -e 256 -c 0 -i 120 -a 0 -x {0.0 1.0 120 ------- null}
d -t 0.533599999999994 -s 0 -d 1 -p cbr -e 256 -c 0 -i 120 -a 0 -x {0.0 1.0 120 ------- null}
+ -t 0.533879999999994 -s 0 -d 1 -p cbr -e 256 -c 0 -i 121 -a 0 -x {0.0 1.0 121 ------- null}
d -t 0.533879999999994 -s 0 -d 1 -p cbr -e 256 -c 0 -i 121 -a 0 -x {0.0 1.0 121 ------- null}
+ -t 0.534159999999994 -s 0 -d 1 -p cbr -e 256 -c 0 -i 122 -a 0 -x {0.0 1.0 122 ------- null}
d -t 0.534159999999994 -s 0 -d 1 -p cbr -e 256 -c 0 -i 122 -a 0 -x {0.0 1.0 122 ------- null}
+ -t 0.534439999999993 -s 0 -d 1 -p cbr -e 256 -c 0 -i 123 -a 0 -x {0.0 1.0 123 ------- null}
d -t 0.534439999999993 -s 0 -d 1 -p cbr -e 256 -c 0 -i 123 -a 0 -x {0.0 1.0 123 ------- null}
+ -t 0.534719999999993 -s 0 -d 1 -p cbr -e 256 -c 0 -i 124 -a 0 -x {0.0 1.0 124 ------- null}
d -t 0.534719999999993 -s 0 -d 1 -p cbr -e 256 -c 0 -i 124 -a 0 -x {0.0 1.0 124 ------- null}
- -t 0.534816000000001 -s 0 -d 1 -p cbr -e 256 -c 0 -i 17 -a 0 -x {0.0 1.0 17 ------- null}
h -t 0.534816000000001 -s 0 -d 1 -p cbr -e 256 -c 0 -i 17 -a 0 -x {0.0 1.0 -1 ------- null}
r -t 0.534817000000001 -s 0 -d 1 -p cbr -e 256 -c 0 -i 16 -a 0 -x {0.0 1.0 16 ------- null}
+ -t 0.534999999999993 -s 0 -d 1 -p cbr -e 256 -c 0 -i 125 -a 0 -x {0.0 1.0 125 ------- null}
+ -t 0.535279999999993 -s 0 -d 1 -p cbr -e 256 -c 0 -i 126 -a 0 -x {0.0 1.0 126 ------- null}
d -t 0.535279999999993 -s 0 -d 1 -p cbr -e 256 -c 0 -i 126 -a 0 -x {0.0 1.0 126 ------- null}
+ -t 0.535559999999993 -s 0 -d 1 -p cbr -e 256 -c 0 -i 127 -a 0 -x {0.0 1.0 127 ------- null}
d -t 0.535559999999993 -s 0 -d 1 -p cbr -e 256 -c 0 -i 127 -a 0 -x {0.0 1.0 127 ------- null}
+ -t 0.535839999999993 -s 0 -d 1 -p cbr -e 256 -c 0 -i 128 -a 0 -x {0.0 1.0 128 ------- null}
d -t 0.535839999999993 -s 0 -d 1 -p cbr -e 256 -c 0 -i 128 -a 0 -x {0.0 1.0 128 ------- null}
+ -t 0.536119999999993 -s 0 -d 1 -p cbr -e 256 -c 0 -i 129 -a 0 -x {0.0 1.0 129 ------- null}
d -t 0.536119999999993 -s 0 -d 1 -p cbr -e 256 -c 0 -i 129 -a 0 -x {0.0 1.0 129 ------- null}
+ -t 0.536399999999993 -s 0 -d 1 -p cbr -e 256 -c 0 -i 130 -a 0 -x {0.0 1.0 130 ------- null}
d -t 0.536399999999993 -s 0 -d 1 -p cbr -e 256 -c 0 -i 130 -a 0 -x {0.0 1.0 130 ------- null}
+ -t 0.536679999999993 -s 0 -d 1 -p cbr -e 256 -c 0 -i 131 -a 0 -x {0.0 1.0 131 ------- null}
d -t 0.536679999999993 -s 0 -d 1 -p cbr -e 256 -c 0 -i 131 -a 0 -x {0.0 1.0 131 ------- null}
- -t 0.536864000000001 -s 0 -d 1 -p cbr -e 256 -c 0 -i 18 -a 0 -x {0.0 1.0 18 ------- null}
h -t 0.536864000000001 -s 0 -d 1 -p cbr -e 256 -c 0 -i 18 -a 0 -x {0.0 1.0 -1 ------- null}
r -t 0.536865000000001 -s 0 -d 1 -p cbr -e 256 -c 0 -i 17 -a 0 -x {0.0 1.0 17 ------- null}
+ -t 0.536959999999993 -s 0 -d 1 -p cbr -e 256 -c 0 -i 132 -a 0 -x {0.0 1.0 132 ------- null}
+ -t 0.537239999999993 -s 0 -d 1 -p cbr -e 256 -c 0 -i 133 -a 0 -x {0.0 1.0 133 ------- null}
d -t 0.537239999999993 -s 0 -d 1 -p cbr -e 256 -c 0 -i 133 -a 0 -x {0.0 1.0 133 ------- null}
+ -t 0.537519999999993 -s 0 -d 1 -p cbr -e 256 -c 0 -i 134 -a 0 -x {0.0 1.0 134 ------- null}
d -t 0.537519999999993 -s 0 -d 1 -p cbr -e 256 -c 0 -i 134 -a 0 -x {0.0 1.0 134 ------- null}
+ -t 0.537799999999993 -s 0 -d 1 -p cbr -e 256 -c 0 -i 135 -a 0 -x {0.0 1.0 135 ------- null}
d -t 0.537799999999993 -s 0 -d 1 -p cbr -e 256 -c 0 -i 135 -a 0 -x {0.0 1.0 135 ------- null}
+ -t 0.538079999999993 -s 0 -d 1 -p cbr -e 256 -c 0 -i 136 -a 0 -x {0.0 1.0 136 ------- null}
d -t 0.538079999999993 -s 0 -d 1 -p cbr -e 256 -c 0 -i 136 -a 0 -x {0.0 1.0 136 ------- null}
+ -t 0.538359999999993 -s 0 -d 1 -p cbr -e 256 -c 0 -i 137 -a 0 -x {0.0 1.0 137 ------- null}
d -t 0.538359999999993 -s 0 -d 1 -p cbr -e 256 -c 0 -i 137 -a 0 -x {0.0 1.0 137 ------- null}
+ -t 0.538639999999993 -s 0 -d 1 -p cbr -e 256 -c 0 -i 138 -a 0 -x {0.0 1.0 138 ------- null}
d -t 0.538639999999993 -s 0 -d 1 -p cbr -e 256 -c 0 -i 138 -a 0 -x {0.0 1.0 138 ------- null}
- -t 0.538912000000001 -s 0 -d 1 -p cbr -e 256 -c 0 -i 19 -a 0 -x {0.0 1.0 19 ------- null}
h -t 0.538912000000001 -s 0 -d 1 -p cbr -e 256 -c 0 -i 19 -a 0 -x {0.0 1.0 -1 ------- null}
r -t 0.538913000000001 -s 0 -d 1 -p cbr -e 256 -c 0 -i 18 -a 0 -x {0.0 1.0 18 ------- null}
+ -t 0.538919999999993 -s 0 -d 1 -p cbr -e 256 -c 0 -i 139 -a 0 -x {0.0 1.0 139 ------- null}
+ -t 0.539199999999993 -s 0 -d 1 -p cbr -e 256 -c 0 -i 140 -a 0 -x {0.0 1.0 140 ------- null}
d -t 0.539199999999993 -s 0 -d 1 -p cbr -e 256 -c 0 -i 140 -a 0 -x {0.0 1.0 140 ------- null}
+ -t 0.539479999999993 -s 0 -d 1 -p cbr -e 256 -c 0 -i 141 -a 0 -x {0.0 1.0 141 ------- null}
d -t 0.539479999999993 -s 0 -d 1 -p cbr -e 256 -c 0 -i 141 -a 0 -x {0.0 1.0 141 ------- null}
+ -t 0.539759999999992 -s 0 -d 1 -p cbr -e 256 -c 0 -i 142 -a 0 -x {0.0 1.0 142 ------- null}
d -t 0.539759999999992 -s 0 -d 1 -p cbr -e 256 -c 0 -i 142 -a 0 -x {0.0 1.0 142 ------- null}
+ -t 0.540039999999992 -s 0 -d 1 -p cbr -e 256 -c 0 -i 143 -a 0 -x {0.0 1.0 143 ------- null}
d -t 0.540039999999992 -s 0 -d 1 -p cbr -e 256 -c 0 -i 143 -a 0 -x {0.0 1.0 143 ------- null}
+ -t 0.540319999999992 -s 0 -d 1 -p cbr -e 256 -c 0 -i 144 -a 0 -x {0.0 1.0 144 ------- null}
d -t 0.540319999999992 -s 0 -d 1 -p cbr -e 256 -c 0 -i 144 -a 0 -x {0.0 1.0 144 ------- null}
+ -t 0.540599999999992 -s 0 -d 1 -p cbr -e 256 -c 0 -i 145 -a 0 -x {0.0 1.0 145 ------- null}
d -t 0.540599999999992 -s 0 -d 1 -p cbr -e 256 -c 0 -i 145 -a 0 -x {0.0 1.0 145 ------- null}
+ -t 0.540879999999992 -s 0 -d 1 -p cbr -e 256 -c 0 -i 146 -a 0 -x {0.0 1.0 146 ------- null}
d -t 0.540879999999992 -s 0 -d 1 -p cbr -e 256 -c 0 -i 146 -a 0 -x {0.0 1.0 146 ------- null}
- -t 0.540960000000001 -s 0 -d 1 -p cbr -e 256 -c 0 -i 20 -a 0 -x {0.0 1.0 20 ------- null}
h -t 0.540960000000001 -s 0 -d 1 -p cbr -e 256 -c 0 -i 20 -a 0 -x {0.0 1.0 -1 ------- null}
r -t 0.540961000000001 -s 0 -d 1 -p cbr -e 256 -c 0 -i 19 -a 0 -x {0.0 1.0 19 ------- null}
+ -t 0.541159999999992 -s 0 -d 1 -p cbr -e 256 -c 0 -i 147 -a 0 -x {0.0 1.0 147 ------- null}
+ -t 0.541439999999992 -s 0 -d 1 -p cbr -e 256 -c 0 -i 148 -a 0 -x {0.0 1.0 148 ------- null}
d -t 0.541439999999992 -s 0 -d 1 -p cbr -e 256 -c 0 -i 148 -a 0 -x {0.0 1.0 148 ------- null}
+ -t 0.541719999999992 -s 0 -d 1 -p cbr -e 256 -c 0 -i 149 -a 0 -x {0.0 1.0 149 ------- null}
d -t 0.541719999999992 -s 0 -d 1 -p cbr -e 256 -c 0 -i 149 -a 0 -x {0.0 1.0 149 ------- null}
+ -t 0.541999999999992 -s 0 -d 1 -p cbr -e 256 -c 0 -i 150 -a 0 -x {0.0 1.0 150 ------- null}
d -t 0.541999999999992 -s 0 -d 1 -p cbr -e 256 -c 0 -i 150 -a 0 -x {0.0 1.0 150 ------- null}
+ -t 0.542279999999992 -s 0 -d 1 -p cbr -e 256 -c 0 -i 151 -a 0 -x {0.0 1.0 151 ------- null}
d -t 0.542279999999992 -s 0 -d 1 -p cbr -e 256 -c 0 -i 151 -a 0 -x {0.0 1.0 151 ------- null}
+ -t 0.542559999999992 -s 0 -d 1 -p cbr -e 256 -c 0 -i 152 -a 0 -x {0.0 1.0 152 ------- null}
d -t 0.542559999999992 -s 0 -d 1 -p cbr -e 256 -c 0 -i 152 -a 0 -x {0.0 1.0 152 ------- null}
+ -t 0.542839999999992 -s 0 -d 1 -p cbr -e 256 -c 0 -i 153 -a 0 -x {0.0 1.0 153 ------- null}
d -t 0.542839999999992 -s 0 -d 1 -p cbr -e 256 -c 0 -i 153 -a 0 -x {0.0 1.0 153 ------- null}
- -t 0.543008000000001 -s 0 -d 1 -p cbr -e 256 -c 0 -i 21 -a 0 -x {0.0 1.0 21 ------- null}
h -t 0.543008000000001 -s 0 -d 1 -p cbr -e 256 -c 0 -i 21 -a 0 -x {0.0 1.0 -1 ------- null}
r -t 0.543009000000001 -s 0 -d 1 -p cbr -e 256 -c 0 -i 20 -a 0 -x {0.0 1.0 20 ------- null}
+ -t 0.543119999999992 -s 0 -d 1 -p cbr -e 256 -c 0 -i 154 -a 0 -x {0.0 1.0 154 ------- null}
+ -t 0.543399999999992 -s 0 -d 1 -p cbr -e 256 -c 0 -i 155 -a 0 -x {0.0 1.0 155 ------- null}
d -t 0.543399999999992 -s 0 -d 1 -p cbr -e 256 -c 0 -i 155 -a 0 -x {0.0 1.0 155 ------- null}
+ -t 0.543679999999992 -s 0 -d 1 -p cbr -e 256 -c 0 -i 156 -a 0 -x {0.0 1.0 156 ------- null}
d -t 0.543679999999992 -s 0 -d 1 -p cbr -e 256 -c 0 -i 156 -a 0 -x {0.0 1.0 156 ------- null}
+ -t 0.543959999999992 -s 0 -d 1 -p cbr -e 256 -c 0 -i 157 -a 0 -x {0.0 1.0 157 ------- null}
d -t 0.543959999999992 -s 0 -d 1 -p cbr -e 256 -c 0 -i 157 -a 0 -x {0.0 1.0 157 ------- null}
+ -t 0.544239999999992 -s 0 -d 1 -p cbr -e 256 -c 0 -i 158 -a 0 -x {0.0 1.0 158 ------- null}
d -t 0.544239999999992 -s 0 -d 1 -p cbr -e 256 -c 0 -i 158 -a 0 -x {0.0 1.0 158 ------- null}
+ -t 0.544519999999992 -s 0 -d 1 -p cbr -e 256 -c 0 -i 159 -a 0 -x {0.0 1.0 159 ------- null}
d -t 0.544519999999992 -s 0 -d 1 -p cbr -e 256 -c 0 -i 159 -a 0 -x {0.0 1.0 159 ------- null}
+ -t 0.544799999999992 -s 0 -d 1 -p cbr -e 256 -c 0 -i 160 -a 0 -x {0.0 1.0 160 ------- null}
d -t 0.544799999999992 -s 0 -d 1 -p cbr -e 256 -c 0 -i 160 -a 0 -x {0.0 1.0 160 ------- null}
- -t 0.545056000000001 -s 0 -d 1 -p cbr -e 256 -c 0 -i 22 -a 0 -x {0.0 1.0 22 ------- null}
h -t 0.545056000000001 -s 0 -d 1 -p cbr -e 256 -c 0 -i 22 -a 0 -x {0.0 1.0 -1 ------- null}
r -t 0.545057000000001 -s 0 -d 1 -p cbr -e 256 -c 0 -i 21 -a 0 -x {0.0 1.0 21 ------- null}
+ -t 0.545079999999991 -s 0 -d 1 -p cbr -e 256 -c 0 -i 161 -a 0 -x {0.0 1.0 161 ------- null}
+ -t 0.545359999999991 -s 0 -d 1 -p cbr -e 256 -c 0 -i 162 -a 0 -x {0.0 1.0 162 ------- null}
d -t 0.545359999999991 -s 0 -d 1 -p cbr -e 256 -c 0 -i 162 -a 0 -x {0.0 1.0 162 ------- null}
+ -t 0.545639999999991 -s 0 -d 1 -p cbr -e 256 -c 0 -i 163 -a 0 -x {0.0 1.0 163 ------- null}
d -t 0.545639999999991 -s 0 -d 1 -p cbr -e 256 -c 0 -i 163 -a 0 -x {0.0 1.0 163 ------- null}
+ -t 0.545919999999991 -s 0 -d 1 -p cbr -e 256 -c 0 -i 164 -a 0 -x {0.0 1.0 164 ------- null}